 
             +---------------------------------------------------+
             |                                                   |
             |                   WANNIER90                       |
             |                                                   |
             +---------------------------------------------------+
             |                                                   |
             |        Welcome to the Maximally-Localized         |
             |        Generalized Wannier Functions code         |
             |            http://www.wannier.org                 |
             |                                                   |
             |  Authors:                                         |
             |    Arash A. Mostofi   (Imperial College London)   |
             |    Jonathan R. Yates  (University of Cambridge)   |
             |    Young-Su Lee       (KIST, S. Korea)            |
             |                                                   |
             |                                                   |
             |  Please cite                                      |
             |                                                   |
             |  [ref] "Wannier90: A Tool for Obtaining Maximally |
             |         Localised Wannier Functions"              |
             |        A. A. Mostofi, J. R. Yates, Y.-S. Lee,     |
             |        I. Souza, D. Vanderbilt and N. Marzari     |
             |        Comput. Phys. Commun. 178, 685 (2008)      |
             |                                                   |
             |  in any publications arising from the use of      |
             |  this code.                                       |
             |                                                   |
             |                                                   |
             |  Wannier90 is based on routines written by        |
             |  Nicola Marzari, Ivo Souza and David Vanderbilt.  |
             |  For the method please cite                       |
             |                                                   |
             |  [ref] "Maximally Localized Generalised Wannier   |
             |         Functions for Composite Energy Bands"     |
             |         N. Marzari and D. Vanderbilt              |
             |         Phys. Rev. B 56 12847 (1997)              |
             |                                                   |
             |  [ref] "Maximally Localized Wannier Functions     |
             |         for Entangled Energy Bands"               |
             |         I. Souza, N. Marzari and D. Vanderbilt    |
             |         Phys. Rev. B 65 035109 (2001)             |
             |                                                   |
             |                                                   |
             | Copyright (c) 1997-2007 J. Yates, A. Mostofi,     |
             |   Y.-S Lee, N. Marzari, I. Souza, D. Vanderbilt   |
             |                                                   |
             |       Release: 1.1.1        10th May 2008         |
             |                                                   |
             | This program is free software; you can            |
             | redistribute it and/or modify it under the terms  |
             | of the GNU General Public License as published by |
             | the Free Software Foundation; either version 2 of |
             | the License, or (at your option) any later version|
             |                                                   |
             | This program is distributed in the hope that it   |
             | will be useful, but WITHOUT ANY WARRANTY; without |
             | even the implied warranty of MERCHANTABILITY or   |
             | FITNESS FOR A PARTICULAR PURPOSE. See the GNU     |
             | General Public License for more details.          |
             |                                                   |
             | You should have received a copy of the GNU General|
             | Public License along with this program; if not,   |
             | write to the Free Software Foundation, Inc.,      |
             | 675 Mass Ave, Cambridge, MA 02139, USA.           |
             |                                                   |
             +---------------------------------------------------+
             |    Execution started on 18Dec2011 at 15:11:31     |
             +---------------------------------------------------+

 Wannier90 is running in LIBRARY MODE

 Setting up k-point neighbours...

 
                                    ------
                                    SYSTEM
                                    ------
 
                              Lattice Vectors (Ang)
                    a_1    -2.434215   0.000000   2.434215
                    a_2     0.000000   2.434215   2.434215
                    a_3    -2.434215   2.434215   0.000000
 
                   Unit Cell Volume:      28.84741  (Ang^3)
 
                        Reciprocal-Space Vectors (Ang^-1)
                    b_1    -1.290598  -1.290598   1.290598
                    b_2     1.290598   1.290598   1.290598
                    b_3    -1.290598   1.290598  -1.290598
  
 *----------------------------------------------------------------------------*
 |   Site       Fractional Coordinate          Cartesian Coordinate (Ang)     |
 +----------------------------------------------------------------------------+
 | Pb   1   0.00000   0.00000   0.00000   |    0.00000   0.00000   0.00000    |
 *----------------------------------------------------------------------------*
  
                                -----------
                                PROJECTIONS
                                -----------
  
 +----------------------------------------------------------------------------+
 |     Frac. Coord.   l mr  r        z-axis               x-axis          Z/a |
 +----------------------------------------------------------------------------+
 |  0.00  0.00  0.00 -3  1  1  0.000  0.000  1.000  1.000  0.000  0.000   1.0 |
 |  0.00  0.00  0.00 -3  2  1  0.000  0.000  1.000  1.000  0.000  0.000   1.0 |
 |  0.00  0.00  0.00 -3  3  1  0.000  0.000  1.000  1.000  0.000  0.000   1.0 |
 |  0.00  0.00  0.00 -3  4  1  0.000  0.000  1.000  1.000  0.000  0.000   1.0 |
 +----------------------------------------------------------------------------+
  
                                ------------
                                K-POINT GRID
                                ------------
  
             Grid size =  6 x  6 x  6      Total points =  216
  
 *----------------------------------------------------------------------------*
 | k-point      Fractional Coordinate        Cartesian Coordinate (Ang^-1)    |
 +----------------------------------------------------------------------------+
 |     1    0.00000   0.00000   0.00000   |    0.00000   0.00000   0.00000    |
 |     2    0.00000   0.00000   0.16667   |   -0.21510   0.21510  -0.21510    |
 |     3    0.00000   0.00000   0.33333   |   -0.43020   0.43020  -0.43020    |
 |     4    0.00000   0.00000   0.50000   |   -0.64530   0.64530  -0.64530    |
 |     5    0.00000   0.00000   0.66667   |   -0.86040   0.86040  -0.86040    |
 |     6    0.00000   0.00000   0.83333   |   -1.07550   1.07550  -1.07550    |
 |     7    0.00000   0.16667   0.00000   |    0.21510   0.21510   0.21510    |
 |     8    0.00000   0.16667   0.16667   |    0.00000   0.43020   0.00000    |
 |     9    0.00000   0.16667   0.33333   |   -0.21510   0.64530  -0.21510    |
 |    10    0.00000   0.16667   0.50000   |   -0.43020   0.86040  -0.43020    |
 |    11    0.00000   0.16667   0.66667   |   -0.64530   1.07550  -0.64530    |
 |    12    0.00000   0.16667   0.83333   |   -0.86040   1.29060  -0.86040    |
 |    13    0.00000   0.33333   0.00000   |    0.43020   0.43020   0.43020    |
 |    14    0.00000   0.33333   0.16667   |    0.21510   0.64530   0.21510    |
 |    15    0.00000   0.33333   0.33333   |    0.00000   0.86040   0.00000    |
 |    16    0.00000   0.33333   0.50000   |   -0.21510   1.07550  -0.21510    |
 |    17    0.00000   0.33333   0.66667   |   -0.43020   1.29060  -0.43020    |
 |    18    0.00000   0.33333   0.83333   |   -0.64530   1.50570  -0.64530    |
 |    19    0.00000   0.50000   0.00000   |    0.64530   0.64530   0.64530    |
 |    20    0.00000   0.50000   0.16667   |    0.43020   0.86040   0.43020    |
 |    21    0.00000   0.50000   0.33333   |    0.21510   1.07550   0.21510    |
 |    22    0.00000   0.50000   0.50000   |    0.00000   1.29060   0.00000    |
 |    23    0.00000   0.50000   0.66667   |   -0.21510   1.50570  -0.21510    |
 |    24    0.00000   0.50000   0.83333   |   -0.43020   1.72080  -0.43020    |
 |    25    0.00000   0.66667   0.00000   |    0.86040   0.86040   0.86040    |
 |    26    0.00000   0.66667   0.16667   |    0.64530   1.07550   0.64530    |
 |    27    0.00000   0.66667   0.33333   |    0.43020   1.29060   0.43020    |
 |    28    0.00000   0.66667   0.50000   |    0.21510   1.50570   0.21510    |
 |    29    0.00000   0.66667   0.66667   |    0.00000   1.72080   0.00000    |
 |    30    0.00000   0.66667   0.83333   |   -0.21510   1.93590  -0.21510    |
 |    31    0.00000   0.83333   0.00000   |    1.07550   1.07550   1.07550    |
 |    32    0.00000   0.83333   0.16667   |    0.86040   1.29060   0.86040    |
 |    33    0.00000   0.83333   0.33333   |    0.64530   1.50570   0.64530    |
 |    34    0.00000   0.83333   0.50000   |    0.43020   1.72080   0.43020    |
 |    35    0.00000   0.83333   0.66667   |    0.21510   1.93590   0.21510    |
 |    36    0.00000   0.83333   0.83333   |    0.00000   2.15100   0.00000    |
 |    37    0.16667   0.00000   0.00000   |   -0.21510  -0.21510   0.21510    |
 |    38    0.16667   0.00000   0.16667   |   -0.43020   0.00000   0.00000    |
 |    39    0.16667   0.00000   0.33333   |   -0.64530   0.21510  -0.21510    |
 |    40    0.16667   0.00000   0.50000   |   -0.86040   0.43020  -0.43020    |
 |    41    0.16667   0.00000   0.66667   |   -1.07550   0.64530  -0.64530    |
 |    42    0.16667   0.00000   0.83333   |   -1.29060   0.86040  -0.86040    |
 |    43    0.16667   0.16667   0.00000   |    0.00000   0.00000   0.43020    |
 |    44    0.16667   0.16667   0.16667   |   -0.21510   0.21510   0.21510    |
 |    45    0.16667   0.16667   0.33333   |   -0.43020   0.43020   0.00000    |
 |    46    0.16667   0.16667   0.50000   |   -0.64530   0.64530  -0.21510    |
 |    47    0.16667   0.16667   0.66667   |   -0.86040   0.86040  -0.43020    |
 |    48    0.16667   0.16667   0.83333   |   -1.07550   1.07550  -0.64530    |
 |    49    0.16667   0.33333   0.00000   |    0.21510   0.21510   0.64530    |
 |    50    0.16667   0.33333   0.16667   |    0.00000   0.43020   0.43020    |
 |    51    0.16667   0.33333   0.33333   |   -0.21510   0.64530   0.21510    |
 |    52    0.16667   0.33333   0.50000   |   -0.43020   0.86040   0.00000    |
 |    53    0.16667   0.33333   0.66667   |   -0.64530   1.07550  -0.21510    |
 |    54    0.16667   0.33333   0.83333   |   -0.86040   1.29060  -0.43020    |
 |    55    0.16667   0.50000   0.00000   |    0.43020   0.43020   0.86040    |
 |    56    0.16667   0.50000   0.16667   |    0.21510   0.64530   0.64530    |
 |    57    0.16667   0.50000   0.33333   |    0.00000   0.86040   0.43020    |
 |    58    0.16667   0.50000   0.50000   |   -0.21510   1.07550   0.21510    |
 |    59    0.16667   0.50000   0.66667   |   -0.43020   1.29060   0.00000    |
 |    60    0.16667   0.50000   0.83333   |   -0.64530   1.50570  -0.21510    |
 |    61    0.16667   0.66667   0.00000   |    0.64530   0.64530   1.07550    |
 |    62    0.16667   0.66667   0.16667   |    0.43020   0.86040   0.86040    |
 |    63    0.16667   0.66667   0.33333   |    0.21510   1.07550   0.64530    |
 |    64    0.16667   0.66667   0.50000   |    0.00000   1.29060   0.43020    |
 |    65    0.16667   0.66667   0.66667   |   -0.21510   1.50570   0.21510    |
 |    66    0.16667   0.66667   0.83333   |   -0.43020   1.72080   0.00000    |
 |    67    0.16667   0.83333   0.00000   |    0.86040   0.86040   1.29060    |
 |    68    0.16667   0.83333   0.16667   |    0.64530   1.07550   1.07550    |
 |    69    0.16667   0.83333   0.33333   |    0.43020   1.29060   0.86040    |
 |    70    0.16667   0.83333   0.50000   |    0.21510   1.50570   0.64530    |
 |    71    0.16667   0.83333   0.66667   |    0.00000   1.72080   0.43020    |
 |    72    0.16667   0.83333   0.83333   |   -0.21510   1.93590   0.21510    |
 |    73    0.33333   0.00000   0.00000   |   -0.43020  -0.43020   0.43020    |
 |    74    0.33333   0.00000   0.16667   |   -0.64530  -0.21510   0.21510    |
 |    75    0.33333   0.00000   0.33333   |   -0.86040   0.00000   0.00000    |
 |    76    0.33333   0.00000   0.50000   |   -1.07550   0.21510  -0.21510    |
 |    77    0.33333   0.00000   0.66667   |   -1.29060   0.43020  -0.43020    |
 |    78    0.33333   0.00000   0.83333   |   -1.50570   0.64530  -0.64530    |
 |    79    0.33333   0.16667   0.00000   |   -0.21510  -0.21510   0.64530    |
 |    80    0.33333   0.16667   0.16667   |   -0.43020   0.00000   0.43020    |
 |    81    0.33333   0.16667   0.33333   |   -0.64530   0.21510   0.21510    |
 |    82    0.33333   0.16667   0.50000   |   -0.86040   0.43020   0.00000    |
 |    83    0.33333   0.16667   0.66667   |   -1.07550   0.64530  -0.21510    |
 |    84    0.33333   0.16667   0.83333   |   -1.29060   0.86040  -0.43020    |
 |    85    0.33333   0.33333   0.00000   |    0.00000   0.00000   0.86040    |
 |    86    0.33333   0.33333   0.16667   |   -0.21510   0.21510   0.64530    |
 |    87    0.33333   0.33333   0.33333   |   -0.43020   0.43020   0.43020    |
 |    88    0.33333   0.33333   0.50000   |   -0.64530   0.64530   0.21510    |
 |    89    0.33333   0.33333   0.66667   |   -0.86040   0.86040   0.00000    |
 |    90    0.33333   0.33333   0.83333   |   -1.07550   1.07550  -0.21510    |
 |    91    0.33333   0.50000   0.00000   |    0.21510   0.21510   1.07550    |
 |    92    0.33333   0.50000   0.16667   |    0.00000   0.43020   0.86040    |
 |    93    0.33333   0.50000   0.33333   |   -0.21510   0.64530   0.64530    |
 |    94    0.33333   0.50000   0.50000   |   -0.43020   0.86040   0.43020    |
 |    95    0.33333   0.50000   0.66667   |   -0.64530   1.07550   0.21510    |
 |    96    0.33333   0.50000   0.83333   |   -0.86040   1.29060   0.00000    |
 |    97    0.33333   0.66667   0.00000   |    0.43020   0.43020   1.29060    |
 |    98    0.33333   0.66667   0.16667   |    0.21510   0.64530   1.07550    |
 |    99    0.33333   0.66667   0.33333   |    0.00000   0.86040   0.86040    |
 |   100    0.33333   0.66667   0.50000   |   -0.21510   1.07550   0.64530    |
 |   101    0.33333   0.66667   0.66667   |   -0.43020   1.29060   0.43020    |
 |   102    0.33333   0.66667   0.83333   |   -0.64530   1.50570   0.21510    |
 |   103    0.33333   0.83333   0.00000   |    0.64530   0.64530   1.50570    |
 |   104    0.33333   0.83333   0.16667   |    0.43020   0.86040   1.29060    |
 |   105    0.33333   0.83333   0.33333   |    0.21510   1.07550   1.07550    |
 |   106    0.33333   0.83333   0.50000   |    0.00000   1.29060   0.86040    |
 |   107    0.33333   0.83333   0.66667   |   -0.21510   1.50570   0.64530    |
 |   108    0.33333   0.83333   0.83333   |   -0.43020   1.72080   0.43020    |
 |   109    0.50000   0.00000   0.00000   |   -0.64530  -0.64530   0.64530    |
 |   110    0.50000   0.00000   0.16667   |   -0.86040  -0.43020   0.43020    |
 |   111    0.50000   0.00000   0.33333   |   -1.07550  -0.21510   0.21510    |
 |   112    0.50000   0.00000   0.50000   |   -1.29060   0.00000   0.00000    |
 |   113    0.50000   0.00000   0.66667   |   -1.50570   0.21510  -0.21510    |
 |   114    0.50000   0.00000   0.83333   |   -1.72080   0.43020  -0.43020    |
 |   115    0.50000   0.16667   0.00000   |   -0.43020  -0.43020   0.86040    |
 |   116    0.50000   0.16667   0.16667   |   -0.64530  -0.21510   0.64530    |
 |   117    0.50000   0.16667   0.33333   |   -0.86040   0.00000   0.43020    |
 |   118    0.50000   0.16667   0.50000   |   -1.07550   0.21510   0.21510    |
 |   119    0.50000   0.16667   0.66667   |   -1.29060   0.43020   0.00000    |
 |   120    0.50000   0.16667   0.83333   |   -1.50570   0.64530  -0.21510    |
 |   121    0.50000   0.33333   0.00000   |   -0.21510  -0.21510   1.07550    |
 |   122    0.50000   0.33333   0.16667   |   -0.43020   0.00000   0.86040    |
 |   123    0.50000   0.33333   0.33333   |   -0.64530   0.21510   0.64530    |
 |   124    0.50000   0.33333   0.50000   |   -0.86040   0.43020   0.43020    |
 |   125    0.50000   0.33333   0.66667   |   -1.07550   0.64530   0.21510    |
 |   126    0.50000   0.33333   0.83333   |   -1.29060   0.86040   0.00000    |
 |   127    0.50000   0.50000   0.00000   |    0.00000   0.00000   1.29060    |
 |   128    0.50000   0.50000   0.16667   |   -0.21510   0.21510   1.07550    |
 |   129    0.50000   0.50000   0.33333   |   -0.43020   0.43020   0.86040    |
 |   130    0.50000   0.50000   0.50000   |   -0.64530   0.64530   0.64530    |
 |   131    0.50000   0.50000   0.66667   |   -0.86040   0.86040   0.43020    |
 |   132    0.50000   0.50000   0.83333   |   -1.07550   1.07550   0.21510    |
 |   133    0.50000   0.66667   0.00000   |    0.21510   0.21510   1.50570    |
 |   134    0.50000   0.66667   0.16667   |    0.00000   0.43020   1.29060    |
 |   135    0.50000   0.66667   0.33333   |   -0.21510   0.64530   1.07550    |
 |   136    0.50000   0.66667   0.50000   |   -0.43020   0.86040   0.86040    |
 |   137    0.50000   0.66667   0.66667   |   -0.64530   1.07550   0.64530    |
 |   138    0.50000   0.66667   0.83333   |   -0.86040   1.29060   0.43020    |
 |   139    0.50000   0.83333   0.00000   |    0.43020   0.43020   1.72080    |
 |   140    0.50000   0.83333   0.16667   |    0.21510   0.64530   1.50570    |
 |   141    0.50000   0.83333   0.33333   |    0.00000   0.86040   1.29060    |
 |   142    0.50000   0.83333   0.50000   |   -0.21510   1.07550   1.07550    |
 |   143    0.50000   0.83333   0.66667   |   -0.43020   1.29060   0.86040    |
 |   144    0.50000   0.83333   0.83333   |   -0.64530   1.50570   0.64530    |
 |   145    0.66667   0.00000   0.00000   |   -0.86040  -0.86040   0.86040    |
 |   146    0.66667   0.00000   0.16667   |   -1.07550  -0.64530   0.64530    |
 |   147    0.66667   0.00000   0.33333   |   -1.29060  -0.43020   0.43020    |
 |   148    0.66667   0.00000   0.50000   |   -1.50570  -0.21510   0.21510    |
 |   149    0.66667   0.00000   0.66667   |   -1.72080   0.00000   0.00000    |
 |   150    0.66667   0.00000   0.83333   |   -1.93590   0.21510  -0.21510    |
 |   151    0.66667   0.16667   0.00000   |   -0.64530  -0.64530   1.07550    |
 |   152    0.66667   0.16667   0.16667   |   -0.86040  -0.43020   0.86040    |
 |   153    0.66667   0.16667   0.33333   |   -1.07550  -0.21510   0.64530    |
 |   154    0.66667   0.16667   0.50000   |   -1.29060   0.00000   0.43020    |
 |   155    0.66667   0.16667   0.66667   |   -1.50570   0.21510   0.21510    |
 |   156    0.66667   0.16667   0.83333   |   -1.72080   0.43020   0.00000    |
 |   157    0.66667   0.33333   0.00000   |   -0.43020  -0.43020   1.29060    |
 |   158    0.66667   0.33333   0.16667   |   -0.64530  -0.21510   1.07550    |
 |   159    0.66667   0.33333   0.33333   |   -0.86040   0.00000   0.86040    |
 |   160    0.66667   0.33333   0.50000   |   -1.07550   0.21510   0.64530    |
 |   161    0.66667   0.33333   0.66667   |   -1.29060   0.43020   0.43020    |
 |   162    0.66667   0.33333   0.83333   |   -1.50570   0.64530   0.21510    |
 |   163    0.66667   0.50000   0.00000   |   -0.21510  -0.21510   1.50570    |
 |   164    0.66667   0.50000   0.16667   |   -0.43020   0.00000   1.29060    |
 |   165    0.66667   0.50000   0.33333   |   -0.64530   0.21510   1.07550    |
 |   166    0.66667   0.50000   0.50000   |   -0.86040   0.43020   0.86040    |
 |   167    0.66667   0.50000   0.66667   |   -1.07550   0.64530   0.64530    |
 |   168    0.66667   0.50000   0.83333   |   -1.29060   0.86040   0.43020    |
 |   169    0.66667   0.66667   0.00000   |    0.00000   0.00000   1.72080    |
 |   170    0.66667   0.66667   0.16667   |   -0.21510   0.21510   1.50570    |
 |   171    0.66667   0.66667   0.33333   |   -0.43020   0.43020   1.29060    |
 |   172    0.66667   0.66667   0.50000   |   -0.64530   0.64530   1.07550    |
 |   173    0.66667   0.66667   0.66667   |   -0.86040   0.86040   0.86040    |
 |   174    0.66667   0.66667   0.83333   |   -1.07550   1.07550   0.64530    |
 |   175    0.66667   0.83333   0.00000   |    0.21510   0.21510   1.93590    |
 |   176    0.66667   0.83333   0.16667   |    0.00000   0.43020   1.72080    |
 |   177    0.66667   0.83333   0.33333   |   -0.21510   0.64530   1.50570    |
 |   178    0.66667   0.83333   0.50000   |   -0.43020   0.86040   1.29060    |
 |   179    0.66667   0.83333   0.66667   |   -0.64530   1.07550   1.07550    |
 |   180    0.66667   0.83333   0.83333   |   -0.86040   1.29060   0.86040    |
 |   181    0.83333   0.00000   0.00000   |   -1.07550  -1.07550   1.07550    |
 |   182    0.83333   0.00000   0.16667   |   -1.29060  -0.86040   0.86040    |
 |   183    0.83333   0.00000   0.33333   |   -1.50570  -0.64530   0.64530    |
 |   184    0.83333   0.00000   0.50000   |   -1.72080  -0.43020   0.43020    |
 |   185    0.83333   0.00000   0.66667   |   -1.93590  -0.21510   0.21510    |
 |   186    0.83333   0.00000   0.83333   |   -2.15100   0.00000   0.00000    |
 |   187    0.83333   0.16667   0.00000   |   -0.86040  -0.86040   1.29060    |
 |   188    0.83333   0.16667   0.16667   |   -1.07550  -0.64530   1.07550    |
 |   189    0.83333   0.16667   0.33333   |   -1.29060  -0.43020   0.86040    |
 |   190    0.83333   0.16667   0.50000   |   -1.50570  -0.21510   0.64530    |
 |   191    0.83333   0.16667   0.66667   |   -1.72080   0.00000   0.43020    |
 |   192    0.83333   0.16667   0.83333   |   -1.93590   0.21510   0.21510    |
 |   193    0.83333   0.33333   0.00000   |   -0.64530  -0.64530   1.50570    |
 |   194    0.83333   0.33333   0.16667   |   -0.86040  -0.43020   1.29060    |
 |   195    0.83333   0.33333   0.33333   |   -1.07550  -0.21510   1.07550    |
 |   196    0.83333   0.33333   0.50000   |   -1.29060   0.00000   0.86040    |
 |   197    0.83333   0.33333   0.66667   |   -1.50570   0.21510   0.64530    |
 |   198    0.83333   0.33333   0.83333   |   -1.72080   0.43020   0.43020    |
 |   199    0.83333   0.50000   0.00000   |   -0.43020  -0.43020   1.72080    |
 |   200    0.83333   0.50000   0.16667   |   -0.64530  -0.21510   1.50570    |
 |   201    0.83333   0.50000   0.33333   |   -0.86040   0.00000   1.29060    |
 |   202    0.83333   0.50000   0.50000   |   -1.07550   0.21510   1.07550    |
 |   203    0.83333   0.50000   0.66667   |   -1.29060   0.43020   0.86040    |
 |   204    0.83333   0.50000   0.83333   |   -1.50570   0.64530   0.64530    |
 |   205    0.83333   0.66667   0.00000   |   -0.21510  -0.21510   1.93590    |
 |   206    0.83333   0.66667   0.16667   |   -0.43020   0.00000   1.72080    |
 |   207    0.83333   0.66667   0.33333   |   -0.64530   0.21510   1.50570    |
 |   208    0.83333   0.66667   0.50000   |   -0.86040   0.43020   1.29060    |
 |   209    0.83333   0.66667   0.66667   |   -1.07550   0.64530   1.07550    |
 |   210    0.83333   0.66667   0.83333   |   -1.29060   0.86040   0.86040    |
 |   211    0.83333   0.83333   0.00000   |    0.00000   0.00000   2.15100    |
 |   212    0.83333   0.83333   0.16667   |   -0.21510   0.21510   1.93590    |
 |   213    0.83333   0.83333   0.33333   |   -0.43020   0.43020   1.72080    |
 |   214    0.83333   0.83333   0.50000   |   -0.64530   0.64530   1.50570    |
 |   215    0.83333   0.83333   0.66667   |   -0.86040   0.86040   1.29060    |
 |   216    0.83333   0.83333   0.83333   |   -1.07550   1.07550   1.07550    |
 *----------------------------------------------------------------------------*
  
  
 *---------------------------------- MAIN ------------------------------------*
 |  Number of Wannier Functions               :                 4             |
 |  Number of input Bloch states              :                 6             |
 |  Output verbosity (1=low, 5=high)          :                 2             |
 |  Timing Level (1=low, 5=high)              :                 1             |
 |  Length Unit                               :               Ang             |
 |  Post-processing setup (write *.nnkp)      :                 F             |
 |  Using Gamma-only branch of algorithms     :                 F             |
 *----------------------------------------------------------------------------*
 *------------------------------- WANNIERISE ---------------------------------*
 |  Total number of iterations                :               300             |
 |  Number of CG steps before reset           :                 5             |
 |  Trial step length for line search         :             2.000             |
 |  Convergence tolerence                     :         0.100E-09             |
 |  Convergence window                        :                -1             |
 |  Iterations between writing output         :                 1             |
 |  Iterations between backing up to disk     :               100             |
 |  Write r^2_nm to file                      :                 F             |
 |  Write xyz WF centres to file              :                 F             |
 |  Use guiding centre to control phases      :                 F             |
 *----------------------------------------------------------------------------*
 Time to read parameters        0.001 (sec)

 *---------------------------------- K-MESH ----------------------------------*
 +----------------------------------------------------------------------------+
 |                    Distance to Nearest-Neighbour Shells                    |
 |                    ------------------------------------                    |
 |          Shell             Distance (Ang^-1)          Multiplicity         |
 |          -----             -----------------          ------------         |
 |             1                   0.372563                      8            |
 |             2                   0.430199                      6            |
 |             3                   0.608394                     12            |
 |             4                   0.713405                     24            |
 |             5                   0.745127                      8            |
 |             6                   0.860399                      6            |
 |             7                   0.937598                     24            |
 |             8                   0.961955                     24            |
 |             9                   1.053769                     24            |
 |            10                   1.117690                     32            |
 |            11                   1.216787                     12            |
 |            12                   1.272547                     48            |
 +----------------------------------------------------------------------------+
 | The b-vectors are chosen automatically                                     |
 | Shell:  1 w_b    2.7016599      (Ang^2)                                    |
 | The following shells are used:   1                                         |
 +----------------------------------------------------------------------------+
 |                        Shell   # Nearest-Neighbours                        |
 |                        -----   --------------------                        |
 |                          1               8                                 |
 +----------------------------------------------------------------------------+
 | Completeness relation is fully satisfied [Eq. (B1), PRB 56, 12847 (1997)]  |
 +----------------------------------------------------------------------------+
 |                  b_k Vectors (Ang^-1) and Weights (Ang^2)                  |
 |                  ----------------------------------------                  |
 |            No.         b_k(x)      b_k(y)      b_k(z)        w_b           |
 |            ---        --------------------------------     --------        |
 |             1        -0.215100    0.215100   -0.215100     2.701660        |
 |             2         0.215100    0.215100    0.215100     2.701660        |
 |             3        -0.215100   -0.215100    0.215100     2.701660        |
 |             4        -0.215100    0.215100    0.215100     2.701660        |
 |             5         0.215100   -0.215100    0.215100     2.701660        |
 |             6        -0.215100   -0.215100   -0.215100     2.701660        |
 |             7         0.215100    0.215100   -0.215100     2.701660        |
 |             8         0.215100   -0.215100   -0.215100     2.701660        |
 +----------------------------------------------------------------------------+
 |                           b_k Directions (Ang^-1)                          |
 |                           -----------------------                          |
 |            No.           x           y           z                         |
 |            ---        --------------------------------                     |
 |             1        -0.215100    0.215100   -0.215100                     |
 |             2         0.215100    0.215100    0.215100                     |
 |             3        -0.215100   -0.215100    0.215100                     |
 |             4        -0.215100    0.215100    0.215100                     |
 +----------------------------------------------------------------------------+
  
 Time to write kmesh            0.135 (sec)

 Finished setting up k-point neighbours.

 Returning to pw2wannier90 at 15:11:32 

 Resuming Wannier90 at 15:11:36 

 
                                    ------
                                    SYSTEM
                                    ------
 
                              Lattice Vectors (Ang)
                    a_1    -2.434215   0.000000   2.434215
                    a_2     0.000000   2.434215   2.434215
                    a_3    -2.434215   2.434215   0.000000
 
                   Unit Cell Volume:      28.84741  (Ang^3)
 
                        Reciprocal-Space Vectors (Ang^-1)
                    b_1    -1.290598  -1.290598   1.290598
                    b_2     1.290598   1.290598   1.290598
                    b_3    -1.290598   1.290598  -1.290598
  
 *----------------------------------------------------------------------------*
 |   Site       Fractional Coordinate          Cartesian Coordinate (Ang)     |
 +----------------------------------------------------------------------------+
 | Pb   1   0.00000   0.00000   0.00000   |    0.00000   0.00000   0.00000    |
 *----------------------------------------------------------------------------*
  
                                -----------
                                PROJECTIONS
                                -----------
  
 +----------------------------------------------------------------------------+
 |     Frac. Coord.   l mr  r        z-axis               x-axis          Z/a |
 +----------------------------------------------------------------------------+
 |  0.00  0.00  0.00 -3  1  1  0.000  0.000  1.000  1.000  0.000  0.000   1.0 |
 |  0.00  0.00  0.00 -3  2  1  0.000  0.000  1.000  1.000  0.000  0.000   1.0 |
 |  0.00  0.00  0.00 -3  3  1  0.000  0.000  1.000  1.000  0.000  0.000   1.0 |
 |  0.00  0.00  0.00 -3  4  1  0.000  0.000  1.000  1.000  0.000  0.000   1.0 |
 +----------------------------------------------------------------------------+
  
                                ------------
                                K-POINT GRID
                                ------------
  
             Grid size =  6 x  6 x  6      Total points =  216
  
 *----------------------------------------------------------------------------*
 | k-point      Fractional Coordinate        Cartesian Coordinate (Ang^-1)    |
 +----------------------------------------------------------------------------+
 |     1    0.00000   0.00000   0.00000   |    0.00000   0.00000   0.00000    |
 |     2    0.00000   0.00000   0.16667   |   -0.21510   0.21510  -0.21510    |
 |     3    0.00000   0.00000   0.33333   |   -0.43020   0.43020  -0.43020    |
 |     4    0.00000   0.00000   0.50000   |   -0.64530   0.64530  -0.64530    |
 |     5    0.00000   0.00000   0.66667   |   -0.86040   0.86040  -0.86040    |
 |     6    0.00000   0.00000   0.83333   |   -1.07550   1.07550  -1.07550    |
 |     7    0.00000   0.16667   0.00000   |    0.21510   0.21510   0.21510    |
 |     8    0.00000   0.16667   0.16667   |    0.00000   0.43020   0.00000    |
 |     9    0.00000   0.16667   0.33333   |   -0.21510   0.64530  -0.21510    |
 |    10    0.00000   0.16667   0.50000   |   -0.43020   0.86040  -0.43020    |
 |    11    0.00000   0.16667   0.66667   |   -0.64530   1.07550  -0.64530    |
 |    12    0.00000   0.16667   0.83333   |   -0.86040   1.29060  -0.86040    |
 |    13    0.00000   0.33333   0.00000   |    0.43020   0.43020   0.43020    |
 |    14    0.00000   0.33333   0.16667   |    0.21510   0.64530   0.21510    |
 |    15    0.00000   0.33333   0.33333   |    0.00000   0.86040   0.00000    |
 |    16    0.00000   0.33333   0.50000   |   -0.21510   1.07550  -0.21510    |
 |    17    0.00000   0.33333   0.66667   |   -0.43020   1.29060  -0.43020    |
 |    18    0.00000   0.33333   0.83333   |   -0.64530   1.50570  -0.64530    |
 |    19    0.00000   0.50000   0.00000   |    0.64530   0.64530   0.64530    |
 |    20    0.00000   0.50000   0.16667   |    0.43020   0.86040   0.43020    |
 |    21    0.00000   0.50000   0.33333   |    0.21510   1.07550   0.21510    |
 |    22    0.00000   0.50000   0.50000   |    0.00000   1.29060   0.00000    |
 |    23    0.00000   0.50000   0.66667   |   -0.21510   1.50570  -0.21510    |
 |    24    0.00000   0.50000   0.83333   |   -0.43020   1.72080  -0.43020    |
 |    25    0.00000   0.66667   0.00000   |    0.86040   0.86040   0.86040    |
 |    26    0.00000   0.66667   0.16667   |    0.64530   1.07550   0.64530    |
 |    27    0.00000   0.66667   0.33333   |    0.43020   1.29060   0.43020    |
 |    28    0.00000   0.66667   0.50000   |    0.21510   1.50570   0.21510    |
 |    29    0.00000   0.66667   0.66667   |    0.00000   1.72080   0.00000    |
 |    30    0.00000   0.66667   0.83333   |   -0.21510   1.93590  -0.21510    |
 |    31    0.00000   0.83333   0.00000   |    1.07550   1.07550   1.07550    |
 |    32    0.00000   0.83333   0.16667   |    0.86040   1.29060   0.86040    |
 |    33    0.00000   0.83333   0.33333   |    0.64530   1.50570   0.64530    |
 |    34    0.00000   0.83333   0.50000   |    0.43020   1.72080   0.43020    |
 |    35    0.00000   0.83333   0.66667   |    0.21510   1.93590   0.21510    |
 |    36    0.00000   0.83333   0.83333   |    0.00000   2.15100   0.00000    |
 |    37    0.16667   0.00000   0.00000   |   -0.21510  -0.21510   0.21510    |
 |    38    0.16667   0.00000   0.16667   |   -0.43020   0.00000   0.00000    |
 |    39    0.16667   0.00000   0.33333   |   -0.64530   0.21510  -0.21510    |
 |    40    0.16667   0.00000   0.50000   |   -0.86040   0.43020  -0.43020    |
 |    41    0.16667   0.00000   0.66667   |   -1.07550   0.64530  -0.64530    |
 |    42    0.16667   0.00000   0.83333   |   -1.29060   0.86040  -0.86040    |
 |    43    0.16667   0.16667   0.00000   |    0.00000   0.00000   0.43020    |
 |    44    0.16667   0.16667   0.16667   |   -0.21510   0.21510   0.21510    |
 |    45    0.16667   0.16667   0.33333   |   -0.43020   0.43020   0.00000    |
 |    46    0.16667   0.16667   0.50000   |   -0.64530   0.64530  -0.21510    |
 |    47    0.16667   0.16667   0.66667   |   -0.86040   0.86040  -0.43020    |
 |    48    0.16667   0.16667   0.83333   |   -1.07550   1.07550  -0.64530    |
 |    49    0.16667   0.33333   0.00000   |    0.21510   0.21510   0.64530    |
 |    50    0.16667   0.33333   0.16667   |    0.00000   0.43020   0.43020    |
 |    51    0.16667   0.33333   0.33333   |   -0.21510   0.64530   0.21510    |
 |    52    0.16667   0.33333   0.50000   |   -0.43020   0.86040   0.00000    |
 |    53    0.16667   0.33333   0.66667   |   -0.64530   1.07550  -0.21510    |
 |    54    0.16667   0.33333   0.83333   |   -0.86040   1.29060  -0.43020    |
 |    55    0.16667   0.50000   0.00000   |    0.43020   0.43020   0.86040    |
 |    56    0.16667   0.50000   0.16667   |    0.21510   0.64530   0.64530    |
 |    57    0.16667   0.50000   0.33333   |    0.00000   0.86040   0.43020    |
 |    58    0.16667   0.50000   0.50000   |   -0.21510   1.07550   0.21510    |
 |    59    0.16667   0.50000   0.66667   |   -0.43020   1.29060   0.00000    |
 |    60    0.16667   0.50000   0.83333   |   -0.64530   1.50570  -0.21510    |
 |    61    0.16667   0.66667   0.00000   |    0.64530   0.64530   1.07550    |
 |    62    0.16667   0.66667   0.16667   |    0.43020   0.86040   0.86040    |
 |    63    0.16667   0.66667   0.33333   |    0.21510   1.07550   0.64530    |
 |    64    0.16667   0.66667   0.50000   |    0.00000   1.29060   0.43020    |
 |    65    0.16667   0.66667   0.66667   |   -0.21510   1.50570   0.21510    |
 |    66    0.16667   0.66667   0.83333   |   -0.43020   1.72080   0.00000    |
 |    67    0.16667   0.83333   0.00000   |    0.86040   0.86040   1.29060    |
 |    68    0.16667   0.83333   0.16667   |    0.64530   1.07550   1.07550    |
 |    69    0.16667   0.83333   0.33333   |    0.43020   1.29060   0.86040    |
 |    70    0.16667   0.83333   0.50000   |    0.21510   1.50570   0.64530    |
 |    71    0.16667   0.83333   0.66667   |    0.00000   1.72080   0.43020    |
 |    72    0.16667   0.83333   0.83333   |   -0.21510   1.93590   0.21510    |
 |    73    0.33333   0.00000   0.00000   |   -0.43020  -0.43020   0.43020    |
 |    74    0.33333   0.00000   0.16667   |   -0.64530  -0.21510   0.21510    |
 |    75    0.33333   0.00000   0.33333   |   -0.86040   0.00000   0.00000    |
 |    76    0.33333   0.00000   0.50000   |   -1.07550   0.21510  -0.21510    |
 |    77    0.33333   0.00000   0.66667   |   -1.29060   0.43020  -0.43020    |
 |    78    0.33333   0.00000   0.83333   |   -1.50570   0.64530  -0.64530    |
 |    79    0.33333   0.16667   0.00000   |   -0.21510  -0.21510   0.64530    |
 |    80    0.33333   0.16667   0.16667   |   -0.43020   0.00000   0.43020    |
 |    81    0.33333   0.16667   0.33333   |   -0.64530   0.21510   0.21510    |
 |    82    0.33333   0.16667   0.50000   |   -0.86040   0.43020   0.00000    |
 |    83    0.33333   0.16667   0.66667   |   -1.07550   0.64530  -0.21510    |
 |    84    0.33333   0.16667   0.83333   |   -1.29060   0.86040  -0.43020    |
 |    85    0.33333   0.33333   0.00000   |    0.00000   0.00000   0.86040    |
 |    86    0.33333   0.33333   0.16667   |   -0.21510   0.21510   0.64530    |
 |    87    0.33333   0.33333   0.33333   |   -0.43020   0.43020   0.43020    |
 |    88    0.33333   0.33333   0.50000   |   -0.64530   0.64530   0.21510    |
 |    89    0.33333   0.33333   0.66667   |   -0.86040   0.86040   0.00000    |
 |    90    0.33333   0.33333   0.83333   |   -1.07550   1.07550  -0.21510    |
 |    91    0.33333   0.50000   0.00000   |    0.21510   0.21510   1.07550    |
 |    92    0.33333   0.50000   0.16667   |    0.00000   0.43020   0.86040    |
 |    93    0.33333   0.50000   0.33333   |   -0.21510   0.64530   0.64530    |
 |    94    0.33333   0.50000   0.50000   |   -0.43020   0.86040   0.43020    |
 |    95    0.33333   0.50000   0.66667   |   -0.64530   1.07550   0.21510    |
 |    96    0.33333   0.50000   0.83333   |   -0.86040   1.29060   0.00000    |
 |    97    0.33333   0.66667   0.00000   |    0.43020   0.43020   1.29060    |
 |    98    0.33333   0.66667   0.16667   |    0.21510   0.64530   1.07550    |
 |    99    0.33333   0.66667   0.33333   |    0.00000   0.86040   0.86040    |
 |   100    0.33333   0.66667   0.50000   |   -0.21510   1.07550   0.64530    |
 |   101    0.33333   0.66667   0.66667   |   -0.43020   1.29060   0.43020    |
 |   102    0.33333   0.66667   0.83333   |   -0.64530   1.50570   0.21510    |
 |   103    0.33333   0.83333   0.00000   |    0.64530   0.64530   1.50570    |
 |   104    0.33333   0.83333   0.16667   |    0.43020   0.86040   1.29060    |
 |   105    0.33333   0.83333   0.33333   |    0.21510   1.07550   1.07550    |
 |   106    0.33333   0.83333   0.50000   |    0.00000   1.29060   0.86040    |
 |   107    0.33333   0.83333   0.66667   |   -0.21510   1.50570   0.64530    |
 |   108    0.33333   0.83333   0.83333   |   -0.43020   1.72080   0.43020    |
 |   109    0.50000   0.00000   0.00000   |   -0.64530  -0.64530   0.64530    |
 |   110    0.50000   0.00000   0.16667   |   -0.86040  -0.43020   0.43020    |
 |   111    0.50000   0.00000   0.33333   |   -1.07550  -0.21510   0.21510    |
 |   112    0.50000   0.00000   0.50000   |   -1.29060   0.00000   0.00000    |
 |   113    0.50000   0.00000   0.66667   |   -1.50570   0.21510  -0.21510    |
 |   114    0.50000   0.00000   0.83333   |   -1.72080   0.43020  -0.43020    |
 |   115    0.50000   0.16667   0.00000   |   -0.43020  -0.43020   0.86040    |
 |   116    0.50000   0.16667   0.16667   |   -0.64530  -0.21510   0.64530    |
 |   117    0.50000   0.16667   0.33333   |   -0.86040   0.00000   0.43020    |
 |   118    0.50000   0.16667   0.50000   |   -1.07550   0.21510   0.21510    |
 |   119    0.50000   0.16667   0.66667   |   -1.29060   0.43020   0.00000    |
 |   120    0.50000   0.16667   0.83333   |   -1.50570   0.64530  -0.21510    |
 |   121    0.50000   0.33333   0.00000   |   -0.21510  -0.21510   1.07550    |
 |   122    0.50000   0.33333   0.16667   |   -0.43020   0.00000   0.86040    |
 |   123    0.50000   0.33333   0.33333   |   -0.64530   0.21510   0.64530    |
 |   124    0.50000   0.33333   0.50000   |   -0.86040   0.43020   0.43020    |
 |   125    0.50000   0.33333   0.66667   |   -1.07550   0.64530   0.21510    |
 |   126    0.50000   0.33333   0.83333   |   -1.29060   0.86040   0.00000    |
 |   127    0.50000   0.50000   0.00000   |    0.00000   0.00000   1.29060    |
 |   128    0.50000   0.50000   0.16667   |   -0.21510   0.21510   1.07550    |
 |   129    0.50000   0.50000   0.33333   |   -0.43020   0.43020   0.86040    |
 |   130    0.50000   0.50000   0.50000   |   -0.64530   0.64530   0.64530    |
 |   131    0.50000   0.50000   0.66667   |   -0.86040   0.86040   0.43020    |
 |   132    0.50000   0.50000   0.83333   |   -1.07550   1.07550   0.21510    |
 |   133    0.50000   0.66667   0.00000   |    0.21510   0.21510   1.50570    |
 |   134    0.50000   0.66667   0.16667   |    0.00000   0.43020   1.29060    |
 |   135    0.50000   0.66667   0.33333   |   -0.21510   0.64530   1.07550    |
 |   136    0.50000   0.66667   0.50000   |   -0.43020   0.86040   0.86040    |
 |   137    0.50000   0.66667   0.66667   |   -0.64530   1.07550   0.64530    |
 |   138    0.50000   0.66667   0.83333   |   -0.86040   1.29060   0.43020    |
 |   139    0.50000   0.83333   0.00000   |    0.43020   0.43020   1.72080    |
 |   140    0.50000   0.83333   0.16667   |    0.21510   0.64530   1.50570    |
 |   141    0.50000   0.83333   0.33333   |    0.00000   0.86040   1.29060    |
 |   142    0.50000   0.83333   0.50000   |   -0.21510   1.07550   1.07550    |
 |   143    0.50000   0.83333   0.66667   |   -0.43020   1.29060   0.86040    |
 |   144    0.50000   0.83333   0.83333   |   -0.64530   1.50570   0.64530    |
 |   145    0.66667   0.00000   0.00000   |   -0.86040  -0.86040   0.86040    |
 |   146    0.66667   0.00000   0.16667   |   -1.07550  -0.64530   0.64530    |
 |   147    0.66667   0.00000   0.33333   |   -1.29060  -0.43020   0.43020    |
 |   148    0.66667   0.00000   0.50000   |   -1.50570  -0.21510   0.21510    |
 |   149    0.66667   0.00000   0.66667   |   -1.72080   0.00000   0.00000    |
 |   150    0.66667   0.00000   0.83333   |   -1.93590   0.21510  -0.21510    |
 |   151    0.66667   0.16667   0.00000   |   -0.64530  -0.64530   1.07550    |
 |   152    0.66667   0.16667   0.16667   |   -0.86040  -0.43020   0.86040    |
 |   153    0.66667   0.16667   0.33333   |   -1.07550  -0.21510   0.64530    |
 |   154    0.66667   0.16667   0.50000   |   -1.29060   0.00000   0.43020    |
 |   155    0.66667   0.16667   0.66667   |   -1.50570   0.21510   0.21510    |
 |   156    0.66667   0.16667   0.83333   |   -1.72080   0.43020   0.00000    |
 |   157    0.66667   0.33333   0.00000   |   -0.43020  -0.43020   1.29060    |
 |   158    0.66667   0.33333   0.16667   |   -0.64530  -0.21510   1.07550    |
 |   159    0.66667   0.33333   0.33333   |   -0.86040   0.00000   0.86040    |
 |   160    0.66667   0.33333   0.50000   |   -1.07550   0.21510   0.64530    |
 |   161    0.66667   0.33333   0.66667   |   -1.29060   0.43020   0.43020    |
 |   162    0.66667   0.33333   0.83333   |   -1.50570   0.64530   0.21510    |
 |   163    0.66667   0.50000   0.00000   |   -0.21510  -0.21510   1.50570    |
 |   164    0.66667   0.50000   0.16667   |   -0.43020   0.00000   1.29060    |
 |   165    0.66667   0.50000   0.33333   |   -0.64530   0.21510   1.07550    |
 |   166    0.66667   0.50000   0.50000   |   -0.86040   0.43020   0.86040    |
 |   167    0.66667   0.50000   0.66667   |   -1.07550   0.64530   0.64530    |
 |   168    0.66667   0.50000   0.83333   |   -1.29060   0.86040   0.43020    |
 |   169    0.66667   0.66667   0.00000   |    0.00000   0.00000   1.72080    |
 |   170    0.66667   0.66667   0.16667   |   -0.21510   0.21510   1.50570    |
 |   171    0.66667   0.66667   0.33333   |   -0.43020   0.43020   1.29060    |
 |   172    0.66667   0.66667   0.50000   |   -0.64530   0.64530   1.07550    |
 |   173    0.66667   0.66667   0.66667   |   -0.86040   0.86040   0.86040    |
 |   174    0.66667   0.66667   0.83333   |   -1.07550   1.07550   0.64530    |
 |   175    0.66667   0.83333   0.00000   |    0.21510   0.21510   1.93590    |
 |   176    0.66667   0.83333   0.16667   |    0.00000   0.43020   1.72080    |
 |   177    0.66667   0.83333   0.33333   |   -0.21510   0.64530   1.50570    |
 |   178    0.66667   0.83333   0.50000   |   -0.43020   0.86040   1.29060    |
 |   179    0.66667   0.83333   0.66667   |   -0.64530   1.07550   1.07550    |
 |   180    0.66667   0.83333   0.83333   |   -0.86040   1.29060   0.86040    |
 |   181    0.83333   0.00000   0.00000   |   -1.07550  -1.07550   1.07550    |
 |   182    0.83333   0.00000   0.16667   |   -1.29060  -0.86040   0.86040    |
 |   183    0.83333   0.00000   0.33333   |   -1.50570  -0.64530   0.64530    |
 |   184    0.83333   0.00000   0.50000   |   -1.72080  -0.43020   0.43020    |
 |   185    0.83333   0.00000   0.66667   |   -1.93590  -0.21510   0.21510    |
 |   186    0.83333   0.00000   0.83333   |   -2.15100   0.00000   0.00000    |
 |   187    0.83333   0.16667   0.00000   |   -0.86040  -0.86040   1.29060    |
 |   188    0.83333   0.16667   0.16667   |   -1.07550  -0.64530   1.07550    |
 |   189    0.83333   0.16667   0.33333   |   -1.29060  -0.43020   0.86040    |
 |   190    0.83333   0.16667   0.50000   |   -1.50570  -0.21510   0.64530    |
 |   191    0.83333   0.16667   0.66667   |   -1.72080   0.00000   0.43020    |
 |   192    0.83333   0.16667   0.83333   |   -1.93590   0.21510   0.21510    |
 |   193    0.83333   0.33333   0.00000   |   -0.64530  -0.64530   1.50570    |
 |   194    0.83333   0.33333   0.16667   |   -0.86040  -0.43020   1.29060    |
 |   195    0.83333   0.33333   0.33333   |   -1.07550  -0.21510   1.07550    |
 |   196    0.83333   0.33333   0.50000   |   -1.29060   0.00000   0.86040    |
 |   197    0.83333   0.33333   0.66667   |   -1.50570   0.21510   0.64530    |
 |   198    0.83333   0.33333   0.83333   |   -1.72080   0.43020   0.43020    |
 |   199    0.83333   0.50000   0.00000   |   -0.43020  -0.43020   1.72080    |
 |   200    0.83333   0.50000   0.16667   |   -0.64530  -0.21510   1.50570    |
 |   201    0.83333   0.50000   0.33333   |   -0.86040   0.00000   1.29060    |
 |   202    0.83333   0.50000   0.50000   |   -1.07550   0.21510   1.07550    |
 |   203    0.83333   0.50000   0.66667   |   -1.29060   0.43020   0.86040    |
 |   204    0.83333   0.50000   0.83333   |   -1.50570   0.64530   0.64530    |
 |   205    0.83333   0.66667   0.00000   |   -0.21510  -0.21510   1.93590    |
 |   206    0.83333   0.66667   0.16667   |   -0.43020   0.00000   1.72080    |
 |   207    0.83333   0.66667   0.33333   |   -0.64530   0.21510   1.50570    |
 |   208    0.83333   0.66667   0.50000   |   -0.86040   0.43020   1.29060    |
 |   209    0.83333   0.66667   0.66667   |   -1.07550   0.64530   1.07550    |
 |   210    0.83333   0.66667   0.83333   |   -1.29060   0.86040   0.86040    |
 |   211    0.83333   0.83333   0.00000   |    0.00000   0.00000   2.15100    |
 |   212    0.83333   0.83333   0.16667   |   -0.21510   0.21510   1.93590    |
 |   213    0.83333   0.83333   0.33333   |   -0.43020   0.43020   1.72080    |
 |   214    0.83333   0.83333   0.50000   |   -0.64530   0.64530   1.50570    |
 |   215    0.83333   0.83333   0.66667   |   -0.86040   0.86040   1.29060    |
 |   216    0.83333   0.83333   0.83333   |   -1.07550   1.07550   1.07550    |
 *----------------------------------------------------------------------------*
  
  
 *---------------------------------- MAIN ------------------------------------*
 |  Number of Wannier Functions               :                 4             |
 |  Number of input Bloch states              :                 6             |
 |  Output verbosity (1=low, 5=high)          :                 2             |
 |  Timing Level (1=low, 5=high)              :                 1             |
 |  Length Unit                               :               Ang             |
 |  Post-processing setup (write *.nnkp)      :                 F             |
 |  Using Gamma-only branch of algorithms     :                 F             |
 *----------------------------------------------------------------------------*
 *------------------------------- WANNIERISE ---------------------------------*
 |  Total number of iterations                :               300             |
 |  Number of CG steps before reset           :                 5             |
 |  Trial step length for line search         :             2.000             |
 |  Convergence tolerence                     :         0.100E-09             |
 |  Convergence window                        :                -1             |
 |  Iterations between writing output         :                 1             |
 |  Iterations between backing up to disk     :               100             |
 |  Write r^2_nm to file                      :                 F             |
 |  Write xyz WF centres to file              :                 F             |
 |  Use guiding centre to control phases      :                 F             |
 *----------------------------------------------------------------------------*
 *------------------------------- DISENTANGLE --------------------------------*
 |  Using band disentanglement                :                 T             |
 |  Total number of iterations                :               200             |
 |  Mixing ratio                              :             0.500             |
 |  Convergence tolerence                     :         1.000E-10             |
 |  Convergence window                        :                 3             |
 *----------------------------------------------------------------------------*
 Time to read parameters        0.002 (sec)

 *---------------------------------- K-MESH ----------------------------------*
 +----------------------------------------------------------------------------+
 |                    Distance to Nearest-Neighbour Shells                    |
 |                    ------------------------------------                    |
 |          Shell             Distance (Ang^-1)          Multiplicity         |
 |          -----             -----------------          ------------         |
 |             1                   0.372563                      8            |
 |             2                   0.430199                      6            |
 |             3                   0.608394                     12            |
 |             4                   0.713405                     24            |
 |             5                   0.745127                      8            |
 |             6                   0.860399                      6            |
 |             7                   0.937598                     24            |
 |             8                   0.961955                     24            |
 |             9                   1.053769                     24            |
 |            10                   1.117690                     32            |
 |            11                   1.216787                     12            |
 |            12                   1.272547                     48            |
 +----------------------------------------------------------------------------+
 | The b-vectors are chosen automatically                                     |
 | Shell:  1 w_b    2.7016599      (Ang^2)                                    |
 | The following shells are used:   1                                         |
 +----------------------------------------------------------------------------+
 |                        Shell   # Nearest-Neighbours                        |
 |                        -----   --------------------                        |
 |                          1               8                                 |
 +----------------------------------------------------------------------------+
 | Completeness relation is fully satisfied [Eq. (B1), PRB 56, 12847 (1997)]  |
 +----------------------------------------------------------------------------+
 |                  b_k Vectors (Ang^-1) and Weights (Ang^2)                  |
 |                  ----------------------------------------                  |
 |            No.         b_k(x)      b_k(y)      b_k(z)        w_b           |
 |            ---        --------------------------------     --------        |
 |             1        -0.215100    0.215100   -0.215100     2.701660        |
 |             2         0.215100    0.215100    0.215100     2.701660        |
 |             3        -0.215100   -0.215100    0.215100     2.701660        |
 |             4        -0.215100    0.215100    0.215100     2.701660        |
 |             5         0.215100   -0.215100    0.215100     2.701660        |
 |             6        -0.215100   -0.215100   -0.215100     2.701660        |
 |             7         0.215100    0.215100   -0.215100     2.701660        |
 |             8         0.215100   -0.215100   -0.215100     2.701660        |
 +----------------------------------------------------------------------------+
 |                           b_k Directions (Ang^-1)                          |
 |                           -----------------------                          |
 |            No.           x           y           z                         |
 |            ---        --------------------------------                     |
 |             1        -0.215100    0.215100   -0.215100                     |
 |             2         0.215100    0.215100    0.215100                     |
 |             3        -0.215100   -0.215100    0.215100                     |
 |             4        -0.215100    0.215100    0.215100                     |
 +----------------------------------------------------------------------------+
  
 Time to get kmesh              0.136 (sec)

 *------------------------------- DISENTANGLE --------------------------------*
 +----------------------------------------------------------------------------+
 |                              Energy  Windows                               |
 |                              ---------------                               |
 |                   Outer: **********  to   18.00000  (eV)                   |
 |                   Inner: **********  to    8.00000  (eV)                   |
 +----------------------------------------------------------------------------+
 |                        K-points with Frozen States                         |
 |                        ---------------------------                         |
 |     1     2     3     4     5     6     7     8     9    10    11    12    |
 |    13    14    15    16    17    18    19    20    21    22    23    24    |
 |    25    26    27    28    29    30    31    32    33    34    35    36    |
 |    37    38    39    40    41    42    43    44    45    46    47    48    |
 |    49    50    51    52    53    54    55    56    57    58    59    60    |
 |    61    62    63    64    65    66    67    68    69    70    71    72    |
 |    73    74    75    76    77    78    79    80    81    82    83    84    |
 |    85    86    87    88    89    90    91    92    93    94    95    96    |
 |    97    98    99   100   101   102   103   104   105   106   107   108    |
 |   109   110   111   112   113   114   115   116   117   118   119   120    |
 |   121   122   123   124   125   126   127   128   129   130   131   132    |
 |   133   134   135   136   137   138   139   140   141   142   143   144    |
 |   145   146   147   148   149   150   151   152   153   154   155   156    |
 |   157   158   159   160   161   162   163   164   165   166   167   168    |
 |   169   170   171   172   173   174   175   176   177   178   179   180    |
 |   181   182   183   184   185   186   187   188   189   190   191   192    |
 |   193   194   195   196   197   198   199   200   201   202   203   204    |
 |   205   206   207   208   209   210   211   212   213   214   215   216    |
 +----------------------------------------------------------------------------+
   Number of target bands to extract:    4
 +----------------------------------------------------------------------------+
 |                                  Windows                                   |
 |                                  -------                                   |
 |               K-point      Ndimwin     Ndimfroz    Nfirstwin               |
 |               ----------------------------------------------               |
 |                   1            4            1           1                  |
 |                   2            5            1           1                  |
 |                   3            6            2           1                  |
 |                   4            6            2           1                  |
 |                   5            6            2           1                  |
 |                   6            5            1           1                  |
 |                   7            5            1           1                  |
 |                   8            6            1           1                  |
 |                   9            6            2           1                  |
 |                  10            5            2           1                  |
 |                  11            6            3           1                  |
 |                  12            6            2           1                  |
 |                  13            6            2           1                  |
 |                  14            6            2           1                  |
 |                  15            6            2           1                  |
 |                  16            6            3           1                  |
 |                  17            5            3           1                  |
 |                  18            6            3           1                  |
 |                  19            6            2           1                  |
 |                  20            5            2           1                  |
 |                  21            6            3           1                  |
 |                  22            6            4           1                  |
 |                  23            6            3           1                  |
 |                  24            5            2           1                  |
 |                  25            6            2           1                  |
 |                  26            6            3           1                  |
 |                  27            5            3           1                  |
 |                  28            6            3           1                  |
 |                  29            6            2           1                  |
 |                  30            6            2           1                  |
 |                  31            5            1           1                  |
 |                  32            6            2           1                  |
 |                  33            6            3           1                  |
 |                  34            5            2           1                  |
 |                  35            6            2           1                  |
 |                  36            6            1           1                  |
 |                  37            5            1           1                  |
 |                  38            6            1           1                  |
 |                  39            6            2           1                  |
 |                  40            5            2           1                  |
 |                  41            6            3           1                  |
 |                  42            6            2           1                  |
 |                  43            6            1           1                  |
 |                  44            5            1           1                  |
 |                  45            6            2           1                  |
 |                  46            6            3           1                  |
 |                  47            5            2           1                  |
 |                  48            6            2           1                  |
 |                  49            6            2           1                  |
 |                  50            6            2           1                  |
 |                  51            6            2           1                  |
 |                  52            6            3           1                  |
 |                  53            6            4           1                  |
 |                  54            6            3           1                  |
 |                  55            5            2           1                  |
 |                  56            6            3           1                  |
 |                  57            6            3           1                  |
 |                  58            6            3           1                  |
 |                  59            6            4           1                  |
 |                  60            6            4           1                  |
 |                  61            6            3           1                  |
 |                  62            5            2           1                  |
 |                  63            6            4           1                  |
 |                  64            6            4           1                  |
 |                  65            6            3           1                  |
 |                  66            6            3           1                  |
 |                  67            6            2           1                  |
 |                  68            6            2           1                  |
 |                  69            6            3           1                  |
 |                  70            6            4           1                  |
 |                  71            6            3           1                  |
 |                  72            6            2           1                  |
 |                  73            6            2           1                  |
 |                  74            6            2           1                  |
 |                  75            6            2           1                  |
 |                  76            6            3           1                  |
 |                  77            5            3           1                  |
 |                  78            6            3           1                  |
 |                  79            6            2           1                  |
 |                  80            6            2           1                  |
 |                  81            6            2           1                  |
 |                  82            6            3           1                  |
 |                  83            6            4           1                  |
 |                  84            6            3           1                  |
 |                  85            6            2           1                  |
 |                  86            6            2           1                  |
 |                  87            6            2           1                  |
 |                  88            6            3           1                  |
 |                  89            5            3           1                  |
 |                  90            6            3           1                  |
 |                  91            6            3           1                  |
 |                  92            6            3           1                  |
 |                  93            6            3           1                  |
 |                  94            5            2           1                  |
 |                  95            6            4           1                  |
 |                  96            6            4           1                  |
 |                  97            5            3           1                  |
 |                  98            6            4           1                  |
 |                  99            5            3           1                  |
 |                 100            6            4           1                  |
 |                 101            5            3           1                  |
 |                 102            6            4           1                  |
 |                 103            6            3           1                  |
 |                 104            6            3           1                  |
 |                 105            6            3           1                  |
 |                 106            6            4           1                  |
 |                 107            6            4           1                  |
 |                 108            5            2           1                  |
 |                 109            6            2           1                  |
 |                 110            5            2           1                  |
 |                 111            6            3           1                  |
 |                 112            6            4           1                  |
 |                 113            6            3           1                  |
 |                 114            5            2           1                  |
 |                 115            5            2           1                  |
 |                 116            6            3           1                  |
 |                 117            6            3           1                  |
 |                 118            6            3           1                  |
 |                 119            6            4           1                  |
 |                 120            6            4           1                  |
 |                 121            6            3           1                  |
 |                 122            6            3           1                  |
 |                 123            6            3           1                  |
 |                 124            5            2           1                  |
 |                 125            6            4           1                  |
 |                 126            6            4           1                  |
 |                 127            6            4           1                  |
 |                 128            6            3           1                  |
 |                 129            5            2           1                  |
 |                 130            6            2           1                  |
 |                 131            5            2           1                  |
 |                 132            6            3           1                  |
 |                 133            6            3           1                  |
 |                 134            6            4           1                  |
 |                 135            6            4           1                  |
 |                 136            5            2           1                  |
 |                 137            6            3           1                  |
 |                 138            6            3           1                  |
 |                 139            5            2           1                  |
 |                 140            6            4           1                  |
 |                 141            6            4           1                  |
 |                 142            6            3           1                  |
 |                 143            6            3           1                  |
 |                 144            6            3           1                  |
 |                 145            6            2           1                  |
 |                 146            6            3           1                  |
 |                 147            5            3           1                  |
 |                 148            6            3           1                  |
 |                 149            6            2           1                  |
 |                 150            6            2           1                  |
 |                 151            6            3           1                  |
 |                 152            5            2           1                  |
 |                 153            6            4           1                  |
 |                 154            6            4           1                  |
 |                 155            6            3           1                  |
 |                 156            6            3           1                  |
 |                 157            5            3           1                  |
 |                 158            6            4           1                  |
 |                 159            5            3           1                  |
 |                 160            6            4           1                  |
 |                 161            5            3           1                  |
 |                 162            6            4           1                  |
 |                 163            6            3           1                  |
 |                 164            6            4           1                  |
 |                 165            6            4           1                  |
 |                 166            5            2           1                  |
 |                 167            6            3           1                  |
 |                 168            6            3           1                  |
 |                 169            6            2           1                  |
 |                 170            6            3           1                  |
 |                 171            5            3           1                  |
 |                 172            6            3           1                  |
 |                 173            6            2           1                  |
 |                 174            6            2           1                  |
 |                 175            6            2           1                  |
 |                 176            6            3           1                  |
 |                 177            6            4           1                  |
 |                 178            6            3           1                  |
 |                 179            6            2           1                  |
 |                 180            6            2           1                  |
 |                 181            5            1           1                  |
 |                 182            6            2           1                  |
 |                 183            6            3           1                  |
 |                 184            5            2           1                  |
 |                 185            6            2           1                  |
 |                 186            6            1           1                  |
 |                 187            6            2           1                  |
 |                 188            6            2           1                  |
 |                 189            6            3           1                  |
 |                 190            6            4           1                  |
 |                 191            6            3           1                  |
 |                 192            6            2           1                  |
 |                 193            6            3           1                  |
 |                 194            6            3           1                  |
 |                 195            6            3           1                  |
 |                 196            6            4           1                  |
 |                 197            6            4           1                  |
 |                 198            5            2           1                  |
 |                 199            5            2           1                  |
 |                 200            6            4           1                  |
 |                 201            6            4           1                  |
 |                 202            6            3           1                  |
 |                 203            6            3           1                  |
 |                 204            6            3           1                  |
 |                 205            6            2           1                  |
 |                 206            6            3           1                  |
 |                 207            6            4           1                  |
 |                 208            6            3           1                  |
 |                 209            6            2           1                  |
 |                 210            6            2           1                  |
 |                 211            6            1           1                  |
 |                 212            6            2           1                  |
 |                 213            5            2           1                  |
 |                 214            6            3           1                  |
 |                 215            6            2           1                  |
 |                 216            5            1           1                  |
 +----------------------------------------------------------------------------+

                   Unitarised projection of Wannier functions                  
                   ------------------------------------------                  
   A_mn = <psi_m|g_n> --> S = A.A^+ --> U = S^-1/2.A
   In dis_project... done
   Using an inner window (linner = T)
   In dis_proj_froz... done

                   Extraction of optimally-connected subspace                  
                   ------------------------------------------                  
 +---------------------------------------------------------------------+<-- DIS
 |  Iter     Omega_I(i-1)      Omega_I(i)      Delta (frac.)    Time   |<-- DIS
 +---------------------------------------------------------------------+<-- DIS
       1       7.86561261       7.32422804       7.392E-02      4.37    <-- DIS
       2       7.31007276       7.29349326       2.273E-03      4.38    <-- DIS
       3       7.29189182       7.28145990       1.433E-03      4.39    <-- DIS
       4       7.28060526       7.27643562       5.730E-04      4.39    <-- DIS
       5       7.27476437       7.27427786       6.688E-05      4.40    <-- DIS
       6       7.27219010       7.27333992      -1.581E-04      4.40    <-- DIS
       7       7.27130882       7.27292972      -2.229E-04      4.41    <-- DIS
       8       7.27120161       7.27274961      -2.128E-04      4.42    <-- DIS
       9       7.27139219       7.27267029      -1.757E-04      4.42    <-- DIS
      10       7.27165741       7.27263528      -1.345E-04      4.43    <-- DIS
      11       7.27190525       7.27261980      -9.825E-05      4.43    <-- DIS
      12       7.27210623       7.27261294      -6.967E-05      4.44    <-- DIS
      13       7.27225786       7.27260990      -4.841E-05      4.44    <-- DIS
      14       7.27236747       7.27260854      -3.315E-05      4.45    <-- DIS
      15       7.27244454       7.27260794      -2.247E-05      4.46    <-- DIS
      16       7.27249774       7.27260767      -1.512E-05      4.46    <-- DIS
      17       7.27253398       7.27260756      -1.012E-05      4.47    <-- DIS
      18       7.27255846       7.27260750      -6.744E-06      4.47    <-- DIS
      19       7.27257487       7.27260748      -4.483E-06      4.48    <-- DIS
      20       7.27258583       7.27260747      -2.975E-06      4.49    <-- DIS
      21       7.27259312       7.27260746      -1.972E-06      4.49    <-- DIS
      22       7.27259797       7.27260746      -1.306E-06      4.50    <-- DIS
      23       7.27260118       7.27260746      -8.641E-07      4.50    <-- DIS
      24       7.27260330       7.27260746      -5.718E-07      4.51    <-- DIS
      25       7.27260471       7.27260746      -3.784E-07      4.51    <-- DIS
      26       7.27260564       7.27260746      -2.505E-07      4.52    <-- DIS
      27       7.27260625       7.27260746      -1.658E-07      4.53    <-- DIS
      28       7.27260666       7.27260746      -1.098E-07      4.53    <-- DIS
      29       7.27260693       7.27260746      -7.275E-08      4.54    <-- DIS
      30       7.27260711       7.27260746      -4.822E-08      4.54    <-- DIS
      31       7.27260723       7.27260746      -3.197E-08      4.55    <-- DIS
      32       7.27260730       7.27260746      -2.121E-08      4.56    <-- DIS
      33       7.27260736       7.27260746      -1.408E-08      4.56    <-- DIS
      34       7.27260739       7.27260746      -9.346E-09      4.57    <-- DIS
      35       7.27260741       7.27260746      -6.208E-09      4.57    <-- DIS
      36       7.27260743       7.27260746      -4.126E-09      4.58    <-- DIS
[...]
  WF centre and spread    2  (  0.381700, -0.381700, -0.381700 )     2.27123112
  WF centre and spread    3  ( -0.381700,  0.381700, -0.381700 )     2.27123115
  WF centre and spread    4  ( -0.381700, -0.381700,  0.381700 )     2.27123113
  Sum of centres and spreads (  0.000000,  0.000000,  0.000000 )     9.08492453
 
    276     0.888E-14     0.0000002049        9.0849244624       7.18  <-- CONV
        O_D=      0.0055770 O_OD=      1.8067400 O_TOT=      9.0849245 <-- SPRD
 Delta: O_D= -0.5149394E-10 O_OD=  0.5150169E-10 O_TOT=  0.8881784E-14 <-- DLTA
 ------------------------------------------------------------------------------
 Cycle:    277
  WF centre and spread    1  (  0.381700,  0.381700,  0.381700 )     2.27123113
  WF centre and spread    2  (  0.381700, -0.381700, -0.381700 )     2.27123112
  WF centre and spread    3  ( -0.381700,  0.381700, -0.381700 )     2.27123115
  WF centre and spread    4  ( -0.381700, -0.381700,  0.381700 )     2.27123113
  Sum of centres and spreads (  0.000000,  0.000000,  0.000000 )     9.08492453
 
    277    -0.231E-13     0.0000002022        9.0849244624       7.19  <-- CONV
        O_D=      0.0055770 O_OD=      1.8067400 O_TOT=      9.0849245 <-- SPRD
 Delta: O_D= -0.6581426E-11 O_OD=  0.6558976E-11 O_TOT= -0.2309264E-13 <-- DLTA
 ------------------------------------------------------------------------------
 Cycle:    278
  WF centre and spread    1  (  0.381700,  0.381700,  0.381700 )     2.27123113
  WF centre and spread    2  (  0.381700, -0.381700, -0.381700 )     2.27123112
  WF centre and spread    3  ( -0.381700,  0.381700, -0.381700 )     2.27123115
  WF centre and spread    4  ( -0.381700, -0.381700,  0.381700 )     2.27123113
  Sum of centres and spreads (  0.000000,  0.000000,  0.000000 )     9.08492453
 
    278     0.355E-14     0.0000002019        9.0849244624       7.20  <-- CONV
        O_D=      0.0055770 O_OD=      1.8067400 O_TOT=      9.0849245 <-- SPRD
 Delta: O_D= -0.8638533E-12 O_OD=  0.8684164E-12 O_TOT=  0.3552714E-14 <-- DLTA
 ------------------------------------------------------------------------------
 Cycle:    279
  WF centre and spread    1  (  0.381700,  0.381700,  0.381700 )     2.27123113
  WF centre and spread    2  (  0.381700, -0.381700, -0.381700 )     2.27123112
  WF centre and spread    3  ( -0.381700,  0.381700, -0.381700 )     2.27123115
  WF centre and spread    4  ( -0.381700, -0.381700,  0.381700 )     2.27123113
  Sum of centres and spreads (  0.000000,  0.000000,  0.000000 )     9.08492453
 
    279    -0.124E-13     0.0000002018        9.0849244624       7.21  <-- CONV
        O_D=      0.0055770 O_OD=      1.8067400 O_TOT=      9.0849245 <-- SPRD
 Delta: O_D= -0.2801599E-11 O_OD=  0.2789102E-11 O_TOT= -0.1243450E-13 <-- DLTA
 ------------------------------------------------------------------------------
 Cycle:    280
  WF centre and spread    1  (  0.381700,  0.381700,  0.381700 )     2.27123113
  WF centre and spread    2  (  0.381700, -0.381700, -0.381700 )     2.27123112
  WF centre and spread    3  ( -0.381700,  0.381700, -0.381700 )     2.27123115
  WF centre and spread    4  ( -0.381700, -0.381700,  0.381700 )     2.27123113
  Sum of centres and spreads (  0.000000,  0.000000,  0.000000 )     9.08492453
 
    280     0.142E-13     0.0000002017        9.0849244624       7.23  <-- CONV
        O_D=      0.0055770 O_OD=      1.8067400 O_TOT=      9.0849245 <-- SPRD
 Delta: O_D= -0.2497617E-11 O_OD=  0.2511102E-11 O_TOT=  0.1421085E-13 <-- DLTA
 ------------------------------------------------------------------------------
 Cycle:    281
  WF centre and spread    1  (  0.381700,  0.381700,  0.381700 )     2.27123113
  WF centre and spread    2  (  0.381700, -0.381700, -0.381700 )     2.27123112
  WF centre and spread    3  ( -0.381700,  0.381700, -0.381700 )     2.27123115
  WF centre and spread    4  ( -0.381700, -0.381700,  0.381700 )     2.27123113
  Sum of centres and spreads (  0.000000,  0.000000,  0.000000 )     9.08492453
 
    281     0.711E-14     0.0000002016        9.0849244624       7.24  <-- CONV
        O_D=      0.0055770 O_OD=      1.8067400 O_TOT=      9.0849245 <-- SPRD
 Delta: O_D= -0.1638167E-10 O_OD=  0.1638978E-10 O_TOT=  0.7105427E-14 <-- DLTA
 ------------------------------------------------------------------------------
 Cycle:    282
  WF centre and spread    1  (  0.381700,  0.381700,  0.381700 )     2.27123113
  WF centre and spread    2  (  0.381700, -0.381700, -0.381700 )     2.27123112
  WF centre and spread    3  ( -0.381700,  0.381700, -0.381700 )     2.27123115
  WF centre and spread    4  ( -0.381700, -0.381700,  0.381700 )     2.27123113
  Sum of centres and spreads (  0.000000,  0.000000,  0.000000 )     9.08492453
 
    282    -0.533E-14     0.0000002007        9.0849244624       7.24  <-- CONV
        O_D=      0.0055770 O_OD=      1.8067400 O_TOT=      9.0849245 <-- SPRD
 Delta: O_D= -0.3902844E-10 O_OD=  0.3902279E-10 O_TOT= -0.5329071E-14 <-- DLTA
 ------------------------------------------------------------------------------
 Cycle:    283
  WF centre and spread    1  (  0.381700,  0.381700,  0.381700 )     2.27123113
  WF centre and spread    2  (  0.381700, -0.381700, -0.381700 )     2.27123112
  WF centre and spread    3  ( -0.381700,  0.381700, -0.381700 )     2.27123115
  WF centre and spread    4  ( -0.381700, -0.381700,  0.381700 )     2.27123113
  Sum of centres and spreads (  0.000000,  0.000000,  0.000000 )     9.08492453
 
    283    -0.178E-14     0.0000001987        9.0849244624       7.26  <-- CONV
        O_D=      0.0055770 O_OD=      1.8067400 O_TOT=      9.0849245 <-- SPRD
 Delta: O_D= -0.4741424E-12 O_OD=  0.4714007E-12 O_TOT= -0.1776357E-14 <-- DLTA
 ------------------------------------------------------------------------------
 Cycle:    284
  WF centre and spread    1  (  0.381700,  0.381700,  0.381700 )     2.27123113
  WF centre and spread    2  (  0.381700, -0.381700, -0.381700 )     2.27123112
  WF centre and spread    3  ( -0.381700,  0.381700, -0.381700 )     2.27123115
  WF centre and spread    4  ( -0.381700, -0.381700,  0.381700 )     2.27123113
  Sum of centres and spreads (  0.000000,  0.000000,  0.000000 )     9.08492453
 
    284    -0.178E-14     0.0000001987        9.0849244624       7.26  <-- CONV
        O_D=      0.0055770 O_OD=      1.8067400 O_TOT=      9.0849245 <-- SPRD
 Delta: O_D= -0.1295978E-10 O_OD=  0.1295852E-10 O_TOT= -0.1776357E-14 <-- DLTA
 ------------------------------------------------------------------------------
 Cycle:    285
  WF centre and spread    1  (  0.381700,  0.381700,  0.381700 )     2.27123113
  WF centre and spread    2  (  0.381700, -0.381700, -0.381700 )     2.27123112
  WF centre and spread    3  ( -0.381700,  0.381700, -0.381700 )     2.27123115
  WF centre and spread    4  ( -0.381700, -0.381700,  0.381700 )     2.27123113
  Sum of centres and spreads (  0.000000,  0.000000,  0.000000 )     9.08492453
 
    285    -0.711E-14     0.0000001980        9.0849244624       7.27  <-- CONV
        O_D=      0.0055770 O_OD=      1.8067400 O_TOT=      9.0849245 <-- SPRD
 Delta: O_D= -0.1933439E-10 O_OD=  0.1932676E-10 O_TOT= -0.7105427E-14 <-- DLTA
 ------------------------------------------------------------------------------
 Cycle:    286
  WF centre and spread    1  (  0.381700,  0.381700,  0.381700 )     2.27123113
  WF centre and spread    2  (  0.381700, -0.381700, -0.381700 )     2.27123112
  WF centre and spread    3  ( -0.381700,  0.381700, -0.381700 )     2.27123115
  WF centre and spread    4  ( -0.381700, -0.381700,  0.381700 )     2.27123113
  Sum of centres and spreads (  0.000000,  0.000000,  0.000000 )     9.08492453
 
    286     0.124E-13     0.0000001970        9.0849244624       7.28  <-- CONV
        O_D=      0.0055770 O_OD=      1.8067400 O_TOT=      9.0849245 <-- SPRD
 Delta: O_D= -0.4278208E-11 O_OD=  0.4290346E-11 O_TOT=  0.1243450E-13 <-- DLTA
 ------------------------------------------------------------------------------
 Cycle:    287
  WF centre and spread    1  (  0.381700,  0.381700,  0.381700 )     2.27123113
  WF centre and spread    2  (  0.381700, -0.381700, -0.381700 )     2.27123112
  WF centre and spread    3  ( -0.381700,  0.381700, -0.381700 )     2.27123115
  WF centre and spread    4  ( -0.381700, -0.381700,  0.381700 )     2.27123113
  Sum of centres and spreads (  0.000000,  0.000000,  0.000000 )     9.08492453
 
    287    -0.320E-13     0.0000001968        9.0849244624       7.29  <-- CONV
        O_D=      0.0055770 O_OD=      1.8067400 O_TOT=      9.0849245 <-- SPRD
 Delta: O_D= -0.3194347E-10 O_OD=  0.3191269E-10 O_TOT= -0.3197442E-13 <-- DLTA
 ------------------------------------------------------------------------------
 Cycle:    288
  WF centre and spread    1  (  0.381700,  0.381700,  0.381700 )     2.27123113
  WF centre and spread    2  (  0.381700, -0.381700, -0.381700 )     2.27123112
  WF centre and spread    3  ( -0.381700,  0.381700, -0.381700 )     2.27123115
  WF centre and spread    4  ( -0.381700, -0.381700,  0.381700 )     2.27123113
  Sum of centres and spreads (  0.000000,  0.000000,  0.000000 )     9.08492453
 
    288     0.107E-13     0.0000001952        9.0849244624       7.30  <-- CONV
        O_D=      0.0055770 O_OD=      1.8067400 O_TOT=      9.0849245 <-- SPRD
 Delta: O_D= -0.3282236E-11 O_OD=  0.3292477E-11 O_TOT=  0.1065814E-13 <-- DLTA
 ------------------------------------------------------------------------------
 Cycle:    289
  WF centre and spread    1  (  0.381700,  0.381700,  0.381700 )     2.27123113
  WF centre and spread    2  (  0.381700, -0.381700, -0.381700 )     2.27123112
  WF centre and spread    3  ( -0.381700,  0.381700, -0.381700 )     2.27123115
  WF centre and spread    4  ( -0.381700, -0.381700,  0.381700 )     2.27123113
  Sum of centres and spreads (  0.000000,  0.000000,  0.000000 )     9.08492453
 
    289     0.178E-13     0.0000001950        9.0849244624       7.31  <-- CONV
        O_D=      0.0055770 O_OD=      1.8067400 O_TOT=      9.0849245 <-- SPRD
 Delta: O_D= -0.2872338E-12 O_OD=  0.3048672E-12 O_TOT=  0.1776357E-13 <-- DLTA
 ------------------------------------------------------------------------------
 Cycle:    290
  WF centre and spread    1  (  0.381700,  0.381700,  0.381700 )     2.27123113
  WF centre and spread    2  (  0.381700, -0.381700, -0.381700 )     2.27123112
  WF centre and spread    3  ( -0.381700,  0.381700, -0.381700 )     2.27123115
  WF centre and spread    4  ( -0.381700, -0.381700,  0.381700 )     2.27123113
  Sum of centres and spreads (  0.000000,  0.000000,  0.000000 )     9.08492453
 
    290    -0.533E-14     0.0000001950        9.0849244624       7.32  <-- CONV
        O_D=      0.0055770 O_OD=      1.8067400 O_TOT=      9.0849245 <-- SPRD
 Delta: O_D= -0.1274753E-10 O_OD=  0.1274358E-10 O_TOT= -0.5329071E-14 <-- DLTA
 ------------------------------------------------------------------------------
 Cycle:    291
  WF centre and spread    1  (  0.381700,  0.381700,  0.381700 )     2.27123113
  WF centre and spread    2  (  0.381700, -0.381700, -0.381700 )     2.27123112
  WF centre and spread    3  ( -0.381700,  0.381700, -0.381700 )     2.27123115
  WF centre and spread    4  ( -0.381700, -0.381700,  0.381700 )     2.27123113
  Sum of centres and spreads (  0.000000,  0.000000,  0.000000 )     9.08492453
 
    291    -0.124E-13     0.0000001943        9.0849244624       7.32  <-- CONV
        O_D=      0.0055770 O_OD=      1.8067400 O_TOT=      9.0849245 <-- SPRD
 Delta: O_D= -0.1901765E-10 O_OD=  0.1900480E-10 O_TOT= -0.1243450E-13 <-- DLTA
 ------------------------------------------------------------------------------
 Cycle:    292
  WF centre and spread    1  (  0.381700,  0.381700,  0.381700 )     2.27123113
  WF centre and spread    2  (  0.381700, -0.381700, -0.381700 )     2.27123112
  WF centre and spread    3  ( -0.381700,  0.381700, -0.381700 )     2.27123115
  WF centre and spread    4  ( -0.381700, -0.381700,  0.381700 )     2.27123113
  Sum of centres and spreads (  0.000000,  0.000000,  0.000000 )     9.08492453
 
    292    -0.178E-14     0.0000001934        9.0849244624       7.33  <-- CONV
        O_D=      0.0055770 O_OD=      1.8067400 O_TOT=      9.0849245 <-- SPRD
 Delta: O_D= -0.2515499E-10 O_OD=  0.2515366E-10 O_TOT= -0.1776357E-14 <-- DLTA
 ------------------------------------------------------------------------------
 Cycle:    293
  WF centre and spread    1  (  0.381700,  0.381700,  0.381700 )     2.27123113
  WF centre and spread    2  (  0.381700, -0.381700, -0.381700 )     2.27123112
  WF centre and spread    3  ( -0.381700,  0.381700, -0.381700 )     2.27123115
  WF centre and spread    4  ( -0.381700, -0.381700,  0.381700 )     2.27123113
  Sum of centres and spreads (  0.000000,  0.000000,  0.000000 )     9.08492453
 
    293    -0.355E-14     0.0000001921        9.0849244624       7.34  <-- CONV
        O_D=      0.0055770 O_OD=      1.8067400 O_TOT=      9.0849245 <-- SPRD
 Delta: O_D= -0.8451420E-11 O_OD=  0.8446133E-11 O_TOT= -0.3552714E-14 <-- DLTA
 ------------------------------------------------------------------------------
 Cycle:    294
  WF centre and spread    1  (  0.381700,  0.381700,  0.381700 )     2.27123113
  WF centre and spread    2  (  0.381700, -0.381700, -0.381700 )     2.27123112
  WF centre and spread    3  ( -0.381700,  0.381700, -0.381700 )     2.27123115
  WF centre and spread    4  ( -0.381700, -0.381700,  0.381700 )     2.27123113
  Sum of centres and spreads (  0.000000,  0.000000,  0.000000 )     9.08492453
 
    294    -0.711E-14     0.0000001916        9.0849244624       7.35  <-- CONV
        O_D=      0.0055770 O_OD=      1.8067400 O_TOT=      9.0849245 <-- SPRD
 Delta: O_D= -0.3724959E-10 O_OD=  0.3724354E-10 O_TOT= -0.7105427E-14 <-- DLTA
 ------------------------------------------------------------------------------
 Cycle:    295
  WF centre and spread    1  (  0.381700,  0.381700,  0.381700 )     2.27123113
  WF centre and spread    2  (  0.381700, -0.381700, -0.381700 )     2.27123112
  WF centre and spread    3  ( -0.381700,  0.381700, -0.381700 )     2.27123115
  WF centre and spread    4  ( -0.381700, -0.381700,  0.381700 )     2.27123113
  Sum of centres and spreads (  0.000000,  0.000000,  0.000000 )     9.08492453
 
    295    -0.533E-14     0.0000001897        9.0849244624       7.35  <-- CONV
        O_D=      0.0055770 O_OD=      1.8067400 O_TOT=      9.0849245 <-- SPRD
 Delta: O_D= -0.6222529E-11 O_OD=  0.6217471E-11 O_TOT= -0.5329071E-14 <-- DLTA
 ------------------------------------------------------------------------------
 Cycle:    296
  WF centre and spread    1  (  0.381700,  0.381700,  0.381700 )     2.27123113
  WF centre and spread    2  (  0.381700, -0.381700, -0.381700 )     2.27123112
  WF centre and spread    3  ( -0.381700,  0.381700, -0.381700 )     2.27123115
  WF centre and spread    4  ( -0.381700, -0.381700,  0.381700 )     2.27123113
  Sum of centres and spreads (  0.000000,  0.000000,  0.000000 )     9.08492453
 
    296     0.000E+00     0.0000001894        9.0849244624       7.36  <-- CONV
        O_D=      0.0055770 O_OD=      1.8067400 O_TOT=      9.0849245 <-- SPRD
 Delta: O_D= -0.1241515E-10 O_OD=  0.1241429E-10 O_TOT=  0.0000000E+00 <-- DLTA
 ------------------------------------------------------------------------------
 Cycle:    297
  WF centre and spread    1  (  0.381700,  0.381700,  0.381700 )     2.27123113
  WF centre and spread    2  (  0.381700, -0.381700, -0.381700 )     2.27123112
  WF centre and spread    3  ( -0.381700,  0.381700, -0.381700 )     2.27123115
  WF centre and spread    4  ( -0.381700, -0.381700,  0.381700 )     2.27123113
  Sum of centres and spreads (  0.000000,  0.000000,  0.000000 )     9.08492453
 
    297     0.000E+00     0.0000001888        9.0849244624       7.37  <-- CONV
        O_D=      0.0055770 O_OD=      1.8067400 O_TOT=      9.0849245 <-- SPRD
 Delta: O_D= -0.5385600E-11 O_OD=  0.5385470E-11 O_TOT=  0.0000000E+00 <-- DLTA
 ------------------------------------------------------------------------------
 Cycle:    298
  WF centre and spread    1  (  0.381700,  0.381700,  0.381700 )     2.27123113
  WF centre and spread    2  (  0.381700, -0.381700, -0.381700 )     2.27123112
  WF centre and spread    3  ( -0.381700,  0.381700, -0.381700 )     2.27123115
  WF centre and spread    4  ( -0.381700, -0.381700,  0.381700 )     2.27123113
  Sum of centres and spreads (  0.000000,  0.000000,  0.000000 )     9.08492453
 
    298    -0.711E-14     0.0000001885        9.0849244624       7.38  <-- CONV
        O_D=      0.0055770 O_OD=      1.8067400 O_TOT=      9.0849245 <-- SPRD
 Delta: O_D= -0.1233041E-10 O_OD=  0.1232214E-10 O_TOT= -0.7105427E-14 <-- DLTA
 ------------------------------------------------------------------------------
 Cycle:    299
  WF centre and spread    1  (  0.381700,  0.381700,  0.381700 )     2.27123113
  WF centre and spread    2  (  0.381700, -0.381700, -0.381700 )     2.27123112
  WF centre and spread    3  ( -0.381700,  0.381700, -0.381700 )     2.27123115
  WF centre and spread    4  ( -0.381700, -0.381700,  0.381700 )     2.27123113
  Sum of centres and spreads (  0.000000,  0.000000,  0.000000 )     9.08492453
 
    299     0.711E-14     0.0000001879        9.0849244624       7.39  <-- CONV
        O_D=      0.0055770 O_OD=      1.8067400 O_TOT=      9.0849245 <-- SPRD
 Delta: O_D= -0.3408743E-11 O_OD=  0.3416600E-11 O_TOT=  0.7105427E-14 <-- DLTA
 ------------------------------------------------------------------------------
 Cycle:    300
  WF centre and spread    1  (  0.381700,  0.381700,  0.381700 )     2.27123113
  WF centre and spread    2  (  0.381700, -0.381700, -0.381700 )     2.27123112
  WF centre and spread    3  ( -0.381700,  0.381700, -0.381700 )     2.27123115
  WF centre and spread    4  ( -0.381700, -0.381700,  0.381700 )     2.27123113
  Sum of centres and spreads (  0.000000,  0.000000,  0.000000 )     9.08492453
 
    300    -0.888E-14     0.0000001877        9.0849244624       7.40  <-- CONV
        O_D=      0.0055770 O_OD=      1.8067400 O_TOT=      9.0849245 <-- SPRD
 Delta: O_D= -0.3677297E-10 O_OD=  0.3676615E-10 O_TOT= -0.8881784E-14 <-- DLTA
 ------------------------------------------------------------------------------

 Writing checkpoint file pb.chk... done

 Final State
  WF centre and spread    1  (  0.381700,  0.381700,  0.381700 )     2.27123113
  WF centre and spread    2  (  0.381700, -0.381700, -0.381700 )     2.27123112
  WF centre and spread    3  ( -0.381700,  0.381700, -0.381700 )     2.27123115
  WF centre and spread    4  ( -0.381700, -0.381700,  0.381700 )     2.27123113
  Sum of centres and spreads (  0.000000,  0.000000,  0.000000 )     9.08492453
 
         Spreads (Ang^2)       Omega I      =     7.272607459
        ================       Omega D      =     0.005576963
                               Omega OD     =     1.806740040
    Final Spread (Ang^2)       Omega Total  =     9.084924462
 ------------------------------------------------------------------------------

 Writing checkpoint file pb.chk... done

 Time for wannierise            2.746 (sec)
 Total Execution Time           3.180 (sec)

 *===========================================================================*
 |                             TIMING INFORMATION                            |
 *===========================================================================*
 |    Tag                                                Ncalls      Time (s)|
 |---------------------------------------------------------------------------|
 |kmesh: get                                        :         2         0.270|
 |dis: main                                         :         1         0.296|
 |wann: main                                        :         1         2.746|
 *---------------------------------------------------------------------------*
 
 All done: wannier90 exiting
