<PP_INFO>
  Converted from the following HGH file using hgh2upf.py by Sinisa Coh:
  >>  Goedecker pseudopotential for Ba
  >>     56  10  070301 zatom,zion,pspdat
  >>  10 11  3 2 2001 0  pspcod,pspxc,lmax,lloc,mmax,r2well
  >>       0.54000000    2    24.52678070    -2.46867001                                  rloc nloc c1 c2
  >>      4                                                                               nnonloc
  >>       0.49206839    2     0.09515093     1.16931840                                  rs ns hs11 hs12
  >>                                         -1.50958357                                             hs22
  >>       0.39148930    3     0.80018261    -1.61683907     0.00000000                   rp np hp11 hp12 hp13
  >>                                          1.91306979     0.00000000                              hp22 hp23
  >>                                                         0.00000000                                   hp33
  >>                           1.38677712    -2.22926159     0.55122185                         kp11 kp12 kp13
  >>                                          3.55539820    -1.30442898                              kp22 kp23
  >>                                                         0.92706460                                   kp33
  >>       0.67217348    1     0.38853100                                                 rd nd hd11
  >>                           0.01663250                                                       kd11
  >>       0.30049773    1   -19.65379452                                                 rf nf hf11
  >>                           0.00607912                                                       kf11
  Generating with spin-orbit potential inculded: False
</PP_INFO>
<PP_HEADER>
  0  Version Number
  Ba  Element
  NC  Norm conserving
  F  Nonlinear Core Correction
  SLA  PW   PBE  PBE
  10  Z valence
  0.0  Total energy
  0.0 0.0  Suggested cutoff for wfc and rho
  3  Max angular momentum component
  1251  Number of points in mesh
  0 6  Number of wavefunctions, projectors
</PP_HEADER>
<PP_MESH>
  <PP_R>
  1.62836065278e-05  1.64884290834e-05  1.66958279896e-05  1.69058356529e-05
  1.71184848874e-05  1.73338089200e-05  1.75518413955e-05  1.77726163820e-05
  1.79961683759e-05  1.82225323077e-05  1.84517435473e-05  1.86838379093e-05
  1.89188516591e-05  1.91568215179e-05  1.93977846690e-05  1.96417787635e-05
  1.98888419258e-05  2.01390127602e-05  2.03923303562e-05  2.06488342954e-05
  2.09085646570e-05  2.11715620243e-05  2.14378674913e-05  2.17075226686e-05
  2.19805696906e-05  2.22570512213e-05  2.25370104615e-05  2.28204911555e-05
  2.31075375976e-05  2.33981946395e-05  2.36925076969e-05  2.39905227569e-05
  2.42922863848e-05  2.45978457319e-05  2.49072485424e-05  2.52205431612e-05
  2.55377785412e-05  2.58590042510e-05  2.61842704829e-05  2.65136280603e-05
  2.68471284460e-05  2.71848237502e-05  2.75267667384e-05  2.78730108399e-05
  2.82236101560e-05  2.85786194687e-05  2.89380942487e-05  2.93020906649e-05
  2.96706655924e-05  3.00438766217e-05  3.04217820679e-05  3.08044409794e-05
  3.11919131475e-05  3.15842591155e-05  3.19815401882e-05  3.23838184417e-05
  3.27911567327e-05  3.32036187086e-05  3.36212688175e-05  3.40441723180e-05
  3.44723952898e-05  3.49060046434e-05  3.53450681313e-05  3.57896543580e-05
  3.62398327910e-05  3.66956737716e-05  3.71572485259e-05  3.76246291759e-05
  3.80978887507e-05  3.85771011981e-05  3.90623413961e-05  3.95536851644e-05
  4.00512092765e-05  4.05549914716e-05  4.10651104665e-05  4.15816459685e-05
  4.21046786873e-05  4.26342903478e-05  4.31705637029e-05  4.37135825465e-05
  4.42634317262e-05  4.48201971572e-05  4.53839658352e-05  4.59548258501e-05
  4.65328664002e-05  4.71181778052e-05  4.77108515214e-05  4.83109801552e-05
  4.89186574780e-05  4.95339784405e-05  5.01570391880e-05  5.07879370748e-05
  5.14267706801e-05  5.20736398230e-05  5.27286455781e-05  5.33918902913e-05
  5.40634775960e-05  5.47435124291e-05  5.54321010473e-05  5.61293510441e-05
  5.68353713662e-05  5.75502723308e-05  5.82741656424e-05  5.90071644110e-05
  5.97493831691e-05  6.05009378899e-05  6.12619460053e-05  6.20325264244e-05
  6.28127995520e-05  6.36028873073e-05  6.44029131431e-05  6.52130020652e-05
  6.60332806515e-05  6.68638770722e-05  6.77049211098e-05  6.85565441790e-05
  6.94188793478e-05  7.02920613577e-05  7.11762266451e-05  7.20715133628e-05
  7.29780614011e-05  7.38960124100e-05  7.48255098212e-05  7.57666988704e-05
  7.67197266206e-05  7.76847419841e-05  7.86618957466e-05  7.96513405903e-05
  8.06532311181e-05  8.16677238773e-05  8.26949773845e-05  8.37351521502e-05
  8.47884107038e-05  8.58549176190e-05  8.69348395398e-05  8.80283452062e-05
  8.91356054805e-05  9.02567933746e-05  9.13920840763e-05  9.25416549770e-05
  9.37056856997e-05  9.48843581263e-05  9.60778564270e-05  9.72863670882e-05
  9.85100789422e-05  9.97491831964e-05  1.01003873463e-04  1.02274345791e-04
  1.03560798694e-04  1.04863433181e-04  1.06182452794e-04  1.07518063631e-04
  1.08870474384e-04  1.10239896370e-04  1.11626543565e-04  1.13030632634e-04
  1.14452382969e-04  1.15892016722e-04  1.17349758838e-04  1.18825837093e-04
  1.20320482127e-04  1.21833927480e-04  1.23366409633e-04  1.24918168038e-04
  1.26489445162e-04  1.28080486518e-04  1.29691540711e-04  1.31322859471e-04
  1.32974697695e-04  1.34647313486e-04  1.36340968194e-04  1.38055926455e-04
  1.39792456236e-04  1.41550828873e-04  1.43331319114e-04  1.45134205166e-04
  1.46959768733e-04  1.48808295062e-04  1.50680072990e-04  1.52575394986e-04
  1.54494557199e-04  1.56437859500e-04  1.58405605534e-04  1.60398102767e-04
  1.62415662530e-04  1.64458600071e-04  1.66527234602e-04  1.68621889353e-04
  1.70742891617e-04  1.72890572805e-04  1.75065268497e-04  1.77267318493e-04
  1.79497066868e-04  1.81754862026e-04  1.84041056750e-04  1.86356008264e-04
  1.88700078283e-04  1.91073633073e-04  1.93477043508e-04  1.95910685124e-04
  1.98374938183e-04  2.00870187730e-04  2.03396823652e-04  2.05955240742e-04
  2.08545838757e-04  2.11169022484e-04  2.13825201800e-04  2.16514791739e-04
  2.19238212555e-04  2.21995889787e-04  2.24788254329e-04  2.27615742493e-04
  2.30478796080e-04  2.33377862448e-04  2.36313394581e-04  2.39285851163e-04
  2.42295696646e-04  2.45343401325e-04  2.48429441410e-04  2.51554299100e-04
  2.54718462661e-04  2.57922426500e-04  2.61166691243e-04  2.64451763813e-04
  2.67778157509e-04  2.71146392086e-04  2.74556993840e-04  2.78010495682e-04
  2.81507437230e-04  2.85048364887e-04  2.88633831932e-04  2.92264398599e-04
  2.95940632174e-04  2.99663107075e-04  3.03432404946e-04  3.07249114747e-04
  3.11113832848e-04  3.15027163118e-04  3.18989717023e-04  3.23002113721e-04
  3.27064980156e-04  3.31178951159e-04  3.35344669548e-04  3.39562786223e-04
  3.43833960275e-04  3.48158859082e-04  3.52538158420e-04  3.56972542561e-04
  3.61462704389e-04  3.66009345500e-04  3.70613176316e-04  3.75274916195e-04
  3.79995293542e-04  3.84775045928e-04  3.89614920197e-04  3.94515672590e-04
  3.99478068860e-04  4.04502884391e-04  4.09590904320e-04  4.14742923662e-04
  4.19959747429e-04  4.25242190761e-04  4.30591079050e-04  4.36007248072e-04
  4.41491544113e-04  4.47044824106e-04  4.52667955763e-04  4.58361817709e-04
  4.64127299621e-04  4.69965302368e-04  4.75876738149e-04  4.81862530639e-04
  4.87923615130e-04  4.94060938679e-04  5.00275460254e-04  5.06568150888e-04
  5.12939993826e-04  5.19391984681e-04  5.25925131591e-04  5.32540455373e-04
  5.39238989684e-04  5.46021781185e-04  5.52889889700e-04  5.59844388384e-04
  5.66886363894e-04  5.74016916551e-04  5.81237160520e-04  5.88548223977e-04
  5.95951249292e-04  6.03447393201e-04  6.11037826994e-04  6.18723736690e-04
  6.26506323229e-04  6.34386802656e-04  6.42366406311e-04  6.50446381024e-04
  6.58627989308e-04  6.66912509555e-04  6.75301236238e-04  6.83795480113e-04
  6.92396568424e-04  7.01105845106e-04  7.09924671004e-04  7.18854424076e-04
  7.27896499614e-04  7.37052310461e-04  7.46323287231e-04  7.55710878533e-04
  7.65216551197e-04  7.74841790504e-04  7.84588100418e-04  7.94457003818e-04
  8.04450042742e-04  8.14568778622e-04  8.24814792530e-04  8.35189685428e-04
  8.45695078413e-04  8.56332612975e-04  8.67103951250e-04  8.78010776282e-04
  8.89054792283e-04  9.00237724905e-04  9.11561321503e-04  9.23027351412e-04
  9.34637606222e-04  9.46393900060e-04  9.58298069870e-04  9.70351975704e-04
  9.82557501007e-04  9.94916552920e-04  1.00743106257e-03  1.02010298537e-03
  1.03293430134e-03  1.04592701539e-03  1.05908315767e-03  1.07240478384e-03
  1.08589397545e-03  1.09955284020e-03  1.11338351232e-03  1.12738815287e-03
  1.14156895012e-03  1.15592811984e-03  1.17046790568e-03  1.18519057951e-03
  1.20009844178e-03  1.21519382188e-03  1.23047907848e-03  1.24595659994e-03
  1.26162880465e-03  1.27749814143e-03  1.29356708990e-03  1.30983816085e-03
  1.32631389668e-03  1.34299687176e-03  1.35988969283e-03  1.37699499943e-03
  1.39431546431e-03  1.41185379381e-03  1.42961272833e-03  1.44759504276e-03
  1.46580354686e-03  1.48424108574e-03  1.50291054031e-03  1.52181482771e-03
  1.54095690177e-03  1.56033975349e-03  1.57996641147e-03  1.59983994241e-03
  1.61996345160e-03  1.64034008337e-03  1.66097302162e-03  1.68186549028e-03
  1.70302075385e-03  1.72444211787e-03  1.74613292949e-03  1.76809657793e-03
  1.79033649505e-03  1.81285615589e-03  1.83565907920e-03  1.85874882797e-03
  1.88212901003e-03  1.90580327858e-03  1.92977533276e-03  1.95404891827e-03
  1.97862782790e-03  2.00351590215e-03  2.02871702984e-03  2.05423514868e-03
  2.08007424596e-03  2.10623835906e-03  2.13273157619e-03  2.15955803697e-03
  2.18672193309e-03  2.21422750896e-03  2.24207906238e-03  2.27028094521e-03
  2.29883756407e-03  2.32775338097e-03  2.35703291407e-03  2.38668073836e-03
  2.41670148637e-03  2.44709984890e-03  2.47788057577e-03  2.50904847651e-03
  2.54060842119e-03  2.57256534110e-03  2.60492422958e-03  2.63769014276e-03
  2.67086820040e-03  2.70446358663e-03  2.73848155080e-03  2.77292740828e-03
  2.80780654131e-03  2.84312439983e-03  2.87888650232e-03  2.91509843668e-03
  2.95176586110e-03  2.98889450494e-03  3.02649016963e-03  3.06455872957e-03
  3.10310613304e-03  3.14213840316e-03  3.18166163880e-03  3.22168201554e-03
  3.26220578666e-03  3.30323928406e-03  3.34478891932e-03  3.38686118466e-03
  3.42946265394e-03  3.47259998375e-03  3.51627991436e-03  3.56050927087e-03
  3.60529496419e-03  3.65064399219e-03  3.69656344073e-03  3.74306048484e-03
  3.79014238976e-03  3.83781651215e-03  3.88609030116e-03  3.93497129970e-03
  3.98446714551e-03  4.03458557241e-03  4.08533441152e-03  4.13672159244e-03
  4.18875514453e-03  4.24144319813e-03  4.29479398586e-03  4.34881584389e-03
  4.40351721324e-03  4.45890664112e-03  4.51499278223e-03  4.57178440015e-03
  4.62929036868e-03  4.68751967325e-03  4.74648141230e-03  4.80618479874e-03
  4.86663916132e-03  4.92785394618e-03  4.98983871824e-03  5.05260316275e-03
  5.11615708679e-03  5.18051042078e-03  5.24567322006e-03  5.31165566646e-03
  5.37846806986e-03  5.44612086984e-03  5.51462463729e-03  5.58399007605e-03
  5.65422802463e-03  5.72534945783e-03  5.79736548854e-03  5.87028736940e-03
  5.94412649461e-03  6.01889440167e-03  6.09460277323e-03  6.17126343887e-03
  6.24888837698e-03  6.32748971662e-03  6.40707973939e-03  6.48767088141e-03
  6.56927573520e-03  6.65190705170e-03  6.73557774220e-03  6.82030088043e-03
  6.90608970454e-03  6.99295761923e-03  7.08091819777e-03  7.16998518418e-03
  7.26017249537e-03  7.35149422328e-03  7.44396463712e-03  7.53759818557e-03
  7.63240949908e-03  7.72841339211e-03  7.82562486545e-03  7.92405910859e-03
  8.02373150209e-03  8.12465761997e-03  8.22685323212e-03  8.33033430684e-03
  8.43511701323e-03  8.54121772382e-03  8.64865301706e-03  8.75743967993e-03
  8.86759471056e-03  8.97913532091e-03  9.09207893942e-03  9.20644321376e-03
  9.32224601359e-03  9.43950543332e-03  9.55823979498e-03  9.67846765106e-03
  9.80020778739e-03  9.92347922614e-03  1.00483012287e-02  1.01746932988e-02
  1.03026751854e-02  1.04322668859e-02  1.05634886494e-02  1.06963609795e-02
  1.08309046377e-02  1.09671406469e-02  1.11050902940e-02  1.12447751341e-02
  1.13862169932e-02  1.15294379719e-02  1.16744604487e-02  1.18213070838e-02
  1.19700008221e-02  1.21205648973e-02  1.22730228356e-02  1.24273984585e-02
  1.25837158878e-02  1.27419995483e-02  1.29022741722e-02  1.30645648026e-02
  1.32288967979e-02  1.33952958352e-02  1.35637879147e-02  1.37343993637e-02
  1.39071568406e-02  1.40820873389e-02  1.42592181921e-02  1.44385770772e-02
  1.46201920192e-02  1.48040913961e-02  1.49903039423e-02  1.51788587540e-02
  1.53697852933e-02  1.55631133928e-02  1.57588732604e-02  1.59570954841e-02
  1.61578110364e-02  1.63610512795e-02  1.65668479702e-02  1.67752332645e-02
  1.69862397232e-02  1.71999003164e-02  1.74162484291e-02  1.76353178660e-02
  1.78571428571e-02  1.80817580632e-02  1.83091985808e-02  1.85394999479e-02
  1.87726981496e-02  1.90088296235e-02  1.92479312658e-02  1.94900404365e-02
  1.97351949656e-02  1.99834331592e-02  2.02347938048e-02  2.04893161781e-02
  2.07470400487e-02  2.10080056866e-02  2.12722538681e-02  2.15398258825e-02
  2.18107635386e-02  2.20851091708e-02  2.23629056463e-02  2.26441963713e-02
  2.29290252980e-02  2.32174369316e-02  2.35094763369e-02  2.38051891458e-02
  2.41046215639e-02  2.44078203781e-02  2.47148329639e-02  2.50257072927e-02
  2.53404919392e-02  2.56592360890e-02  2.59819895468e-02  2.63088027432e-02
  2.66397267436e-02  2.69748132555e-02  2.73141146368e-02  2.76576839042e-02
  2.80055747409e-02  2.83578415056e-02  2.87145392408e-02  2.90757236812e-02
  2.94414512625e-02  2.98117791305e-02  3.01867651496e-02  3.05664679122e-02
  3.09509467476e-02  3.13402617314e-02  3.17344736949e-02  3.21336442344e-02
  3.25378357213e-02  3.29471113111e-02  3.33615349541e-02  3.37811714049e-02
  3.42060862324e-02  3.46363458305e-02  3.50720174280e-02  3.55131690997e-02
  3.59598697763e-02  3.64121892556e-02  3.68701982137e-02  3.73339682152e-02
  3.78035717252e-02  3.82790821202e-02  3.87605736997e-02  3.92481216977e-02
  3.97418022945e-02  4.02416926288e-02  4.07478708095e-02  4.12604159278e-02
  4.17794080701e-02  4.23049283299e-02  4.28370588208e-02  4.33758826894e-02
  4.39214841278e-02  4.44739483875e-02  4.50333617921e-02  4.55998117511e-02
  4.61733867735e-02  4.67541764815e-02  4.73422716247e-02  4.79377640941e-02
  4.85407469368e-02  4.91513143699e-02  4.97695617958e-02  5.03955858171e-02
  5.10294842511e-02  5.16713561459e-02  5.23213017952e-02  5.29794227544e-02
  5.36458218562e-02  5.43206032268e-02  5.50038723021e-02  5.56957358444e-02
  5.63963019587e-02  5.71056801100e-02  5.78239811400e-02  5.85513172846e-02
  5.92878021917e-02  6.00335509385e-02  6.07886800498e-02  6.15533075161e-02
  6.23275528118e-02  6.31115369145e-02  6.39053823232e-02  6.47092130780e-02
  6.55231547789e-02  6.63473346061e-02  6.71818813393e-02  6.80269253781e-02
  6.88825987624e-02  6.97490351930e-02  7.06263700522e-02  7.15147404253e-02
  7.24142851222e-02  7.33251446985e-02  7.42474614778e-02  7.51813795740e-02
  7.61270449137e-02  7.70846052591e-02  7.80542102309e-02  7.90360113318e-02
  8.00301619703e-02  8.10368174845e-02  8.20561351662e-02  8.30882742860e-02
  8.41333961177e-02  8.51916639637e-02  8.62632431805e-02  8.73483012046e-02
  8.84470075785e-02  8.95595339772e-02  9.06860542354e-02  9.18267443740e-02
  9.29817826282e-02  9.41513494752e-02  9.53356276620e-02  9.65348022347e-02
  9.77490605666e-02  9.89785923880e-02  1.00223589816e-01  1.01484247384e-01
  1.02760762072e-01  1.04053333338e-01  1.05362163149e-01  1.06687456012e-01
  1.08029419007e-01  1.09388261819e-01  1.10764196770e-01  1.12157438851e-01
  1.13568205761e-01  1.14996717933e-01  1.16443198577e-01  1.17907873708e-01
  1.19390972184e-01  1.20892725742e-01  1.22413369034e-01  1.23953139664e-01
  1.25512278225e-01  1.27091028334e-01  1.28689636675e-01  1.30308353034e-01
  1.31947430338e-01  1.33607124696e-01  1.35287695440e-01  1.36989405161e-01
  1.38712519755e-01  1.40457308463e-01  1.42224043911e-01  1.44013002156e-01
  1.45824462724e-01  1.47658708662e-01  1.49516026574e-01  1.51396706669e-01
  1.53301042807e-01  1.55229332545e-01  1.57181877182e-01  1.59158981807e-01
  1.61160955347e-01  1.63188110614e-01  1.65240764355e-01  1.67319237302e-01
  1.69423854221e-01  1.71554943961e-01  1.73712839510e-01  1.75897878044e-01
  1.78110400979e-01  1.80350754026e-01  1.82619287246e-01  1.84916355101e-01
  1.87242316513e-01  1.89597534918e-01  1.91982378323e-01  1.94397219365e-01
  1.96842435369e-01  1.99318408403e-01  2.01825525344e-01  2.04364177934e-01
  2.06934762843e-01  2.09537681730e-01  2.12173341305e-01  2.14842153397e-01
  2.17544535013e-01  2.20280908404e-01  2.23051701136e-01  2.25857346150e-01
  2.28698281833e-01  2.31574952089e-01  2.34487806402e-01  2.37437299911e-01
  2.40423893482e-01  2.43448053776e-01  2.46510253323e-01  2.49610970598e-01
  2.52750690096e-01  2.55929902403e-01  2.59149104278e-01  2.62408798728e-01
  2.65709495087e-01  2.69051709095e-01  2.72435962980e-01  2.75862785538e-01
  2.79332712218e-01  2.82846285202e-01  2.86404053494e-01  2.90006573002e-01
  2.93654406627e-01  2.97348124350e-01  3.01088303323e-01  3.04875527956e-01
  3.08710390010e-01  3.12593488691e-01  3.16525430740e-01  3.20506830532e-01
  3.24538310169e-01  3.28620499576e-01  3.32754036605e-01  3.36939567130e-01
  3.41177745147e-01  3.45469232881e-01  3.49814700886e-01  3.54214828149e-01
  3.58670302200e-01  3.63181819215e-01  3.67750084129e-01  3.72375810741e-01
  3.77059721831e-01  3.81802549270e-01  3.86605034134e-01  3.91467926821e-01
  3.96391987169e-01  4.01377984570e-01  4.06426698099e-01  4.11538916626e-01
  4.16715438945e-01  4.21957073900e-01  4.27264640507e-01  4.32638968082e-01
  4.38080896377e-01  4.43591275703e-01  4.49170967068e-01  4.54820842311e-01
  4.60541784236e-01  4.66334686751e-01  4.72200455010e-01  4.78140005551e-01
  4.84154266440e-01  4.90244177419e-01  4.96410690048e-01  5.02654767857e-01
  5.08977386496e-01  5.15379533887e-01  5.21862210379e-01  5.28426428903e-01
  5.35073215132e-01  5.41803607639e-01  5.48618658063e-01  5.55519431267e-01
  5.62507005513e-01  5.69582472623e-01  5.76746938154e-01  5.84001521567e-01
  5.91347356405e-01  5.98785590471e-01  6.06317386004e-01  6.13943919863e-01
  6.21666383707e-01  6.29485984189e-01  6.37403943137e-01  6.45421497747e-01
  6.53539900780e-01  6.61760420752e-01  6.70084342136e-01  6.78512965561e-01
  6.87047608018e-01  6.95689603062e-01  7.04440301021e-01  7.13301069211e-01
  7.22273292144e-01  7.31358371748e-01  7.40557727586e-01  7.49872797076e-01
  7.59305035715e-01  7.68855917312e-01  7.78526934209e-01  7.88319597524e-01
  7.98235437380e-01  8.08276003147e-01  8.18442863685e-01  8.28737607584e-01
  8.39161843421e-01  8.49717200003e-01  8.60405326627e-01  8.71227893333e-01
  8.82186591170e-01  8.93283132457e-01  9.04519251051e-01  9.15896702618e-01
  9.27417264908e-01  9.39082738032e-01  9.50894944745e-01  9.62855730728e-01
  9.74966964878e-01  9.87230539599e-01  9.99648371101e-01  1.01222239969e+00
  1.02495459010e+00  1.03784693174e+00  1.05090143908e+00  1.06412015190e+00
  1.07750513567e+00  1.09105848180e+00  1.10478230804e+00  1.11867875877e+00
  1.13275000532e+00  1.14699824637e+00  1.16142570823e+00  1.17603464522e+00
  1.19082734002e+00  1.20580610401e+00  1.22097327765e+00  1.23633123086e+00
  1.25188236333e+00  1.26762910498e+00  1.28357391624e+00  1.29971928855e+00
  1.31606774464e+00  1.33262183899e+00  1.34938415821e+00  1.36635732145e+00
  1.38354398081e+00  1.40094682173e+00  1.41856856343e+00  1.43641195937e+00
  1.45447979759e+00  1.47277490124e+00  1.49130012897e+00  1.51005837537e+00
  1.52905257147e+00  1.54828568514e+00  1.56776072160e+00  1.58748072387e+00
  1.60744877322e+00  1.62766798972e+00  1.64814153265e+00  1.66887260106e+00
  1.68986443420e+00  1.71112031209e+00  1.73264355602e+00  1.75443752902e+00
  1.77650563646e+00  1.79885132652e+00  1.82147809076e+00  1.84438946466e+00
  1.86758902816e+00  1.89108040625e+00  1.91486726950e+00  1.93895333466e+00
  1.96334236522e+00  1.98803817202e+00  2.01304461382e+00  2.03836559795e+00
  2.06400508084e+00  2.08996706873e+00  2.11625561823e+00  2.14287483697e+00
  2.16982888426e+00  2.19712197174e+00  2.22475836399e+00  2.25274237926e+00
  2.28107839011e+00  2.30977082410e+00  2.33882416448e+00  2.36824295089e+00
  2.39803178009e+00  2.42819530663e+00  2.45873824362e+00  2.48966536347e+00
  2.52098149860e+00  2.55269154221e+00  2.58480044907e+00  2.61731323627e+00
  2.65023498397e+00  2.68357083629e+00  2.71732600201e+00  2.75150575545e+00
  2.78611543726e+00  2.82116045527e+00  2.85664628535e+00  2.89257847222e+00
  2.92896263036e+00  2.96580444487e+00  3.00310967235e+00  3.04088414184e+00
  3.07913375566e+00  3.11786449039e+00  3.15708239779e+00  3.19679360574e+00
  3.23700431920e+00  3.27772082116e+00  3.31894947368e+00  3.36069671880e+00
  3.40296907962e+00  3.44577316128e+00  3.48911565201e+00  3.53300332416e+00
  3.57744303526e+00  3.62244172912e+00  3.66800643687e+00  3.71414427809e+00
  3.76086246190e+00  3.80816828813e+00  3.85606914840e+00  3.90457252732e+00
  3.95368600365e+00  4.00341725145e+00  4.05377404134e+00  4.10476424168e+00
  4.15639581978e+00  4.20867684318e+00  4.26161548090e+00  4.31522000472e+00
  4.36949879043e+00  4.42446031922e+00  4.48011317894e+00  4.53646606546e+00
  4.59352778403e+00  4.65130725066e+00  4.70981349352e+00  4.76905565431e+00
  4.82904298975e+00  4.88978487299e+00  4.95129079506e+00  5.01357036639e+00
  5.07663331828e+00  5.14048950447e+00  5.20514890260e+00  5.27062161583e+00
  5.33691787441e+00  5.40404803727e+00  5.47202259363e+00  5.54085216465e+00
  5.61054750510e+00  5.68111950501e+00  5.75257919140e+00  5.82493772999e+00
  5.89820642696e+00  5.97239673068e+00  6.04752023353e+00  6.12358867373e+00
  6.20061393712e+00  6.27860805905e+00  6.35758322626e+00  6.43755177879e+00
  6.51852621188e+00  6.60051917795e+00  6.68354348858e+00  6.76761211647e+00
  6.85273819752e+00  6.93893503286e+00  7.02621609091e+00  7.11459500953e+00
  7.20408559808e+00  7.29470183967e+00  7.38645789327e+00  7.47936809594e+00
  7.57344696509e+00  7.66870920073e+00  7.76516968779e+00  7.86284349841e+00
  7.96174589433e+00  8.06189232924e+00  8.16329845123e+00  8.26598010521e+00
  8.36995333540e+00  8.47523438783e+00  8.58183971287e+00  8.68978596783e+00
  8.79909001952e+00  8.90976894693e+00  9.02184004387e+00  9.13532082167e+00
  9.25022901193e+00  9.36658256930e+00  9.48439967425e+00  9.60369873594e+00
  9.72449839511e+00  9.84681752693e+00  9.97067524402e+00  1.00960908994e+01
  1.02230840895e+01  1.03516746573e+01  1.04818826954e+01  1.06137285489e+01
  1.07472328191e+01  1.08824163664e+01  1.10193003133e+01  1.11579060483e+01
  1.12982552288e+01  1.14403697847e+01  1.15842719216e+01  1.17299841246e+01
  1.18775291615e+01  1.20269300865e+01  1.21782102438e+01  1.23313932712e+01
  1.24865031039e+01  1.26435639781e+01  1.28026004349e+01  1.29636373240e+01
  1.31266998079e+01  1.32918133653e+01  1.34590037956e+01  1.36282972226e+01
  1.37997200988e+01  1.39732992094e+01  1.41490616763e+01  1.43270349630e+01
  1.45072468780e+01  1.46897255798e+01  1.48744995812e+01  1.50615977534e+01
  1.52510493308e+01  1.54428839158e+01  1.56371314828e+01  1.58338223833e+01
  1.60329873509e+01  1.62346575053e+01  1.64388643581e+01  1.66456398168e+01
  1.68550161906e+01  1.70670261949e+01  1.72817029569e+01  1.74990800201e+01
  1.77191913501e+01  1.79420713398e+01  1.81677548147e+01  1.83962770383e+01
  1.86276737175e+01  1.88619810087e+01  1.90992355228e+01  1.93394743312e+01
  1.95827349719e+01  1.98290554548e+01  2.00784742679e+01  2.03310303835e+01
  2.05867632640e+01  2.08457128681e+01  2.11079196572e+01  2.13734246018e+01
  2.16422691874e+01  2.19144954216e+01  2.21901458403e+01  2.24692635144e+01
  2.27518920567e+01  2.30380756284e+01  2.33278589462e+01  2.36212872895e+01
  2.39184065070e+01  2.42192630242e+01  2.45239038505e+01  2.48323765867e+01
  2.51447294322e+01  2.54610111929e+01  2.57812712884e+01  2.61055597599e+01
  2.64339272783e+01  2.67664251516e+01  2.71031053333e+01  2.74440204303e+01
  2.77892237114e+01  2.81387691152e+01  2.84927112589e+01  2.88511054467e+01
  2.92140076785e+01  2.95814746584e+01  2.99535638039e+01  3.03303332547e+01
  3.07118418817e+01  3.10981492965e+01  3.14893158605e+01  3.18854026941e+01
  3.22864716867e+01  3.26925855062e+01  3.31038076088e+01  3.35202022486e+01
  3.39418344882e+01  3.43687702085e+01  3.48010761191e+01  3.52388197686e+01
  3.56820695554e+01  3.61308947382e+01  3.65853654468e+01  3.70455526932e+01
  3.75115283825e+01  3.79833653245e+01  3.84611372446e+01  3.89449187956e+01
  3.94347855694e+01  3.99308141087e+01  4.04330819190e+01  4.09416674805e+01
  4.14566502609e+01  4.19781107273e+01  4.25061303588e+01  4.30407916597e+01
  4.35821781719e+01  4.41303744880e+01  4.46854662650e+01  4.52475402370e+01
  4.58166842292e+01  4.63929871715e+01  4.69765391125e+01  4.75674312333e+01
  4.81657558619e+01  4.87716064880e+01  4.93850777767e+01  5.00062655844e+01
  5.06352669728e+01  5.12721802246e+01  5.19171048590e+01  5.25701416466e+01
  5.32313926257e+01  5.39009611183e+01  5.45789517457e+01  5.52654704454e+01
  5.59606244873e+01  5.66645224906e+01  5.73772744408e+01  5.80989917069e+01
  5.88297870586e+01  5.95697746843e+01  6.03190702085e+01  6.10777907100e+01
  6.18460547407e+01  6.26239823432e+01  6.34116950704e+01  6.42093160040e+01
  6.50169697738e+01  6.58347825774e+01  6.66628821997e+01  6.75013980331e+01
  6.83504610971e+01  6.92102040598e+01  7.00807612577e+01  7.09622687171e+01
  7.18548641754e+01  7.27586871024e+01  7.36738787223e+01  7.46005820356e+01
  7.55389418416e+01  7.64891047610e+01  7.74512192586e+01  7.84254356668e+01
  7.94119062089e+01  8.04107850229e+01  8.14222281857e+01  8.24463937372e+01
  8.34834417056e+01  8.45335341315e+01  8.55968350941e+01  8.66735107364e+01
  8.77637292911e+01  8.88676611070e+01  8.99854786757e+01  9.11173566586e+01
  9.22634719139e+01  9.34240035243e+01  9.45991328254e+01  9.57890434334e+01
  9.69939212743e+01  9.82139546128e+01  9.94493340815e+01
  </PP_R>
  <PP_RAB>
  2.03545081597e-07  2.06105363542e-07  2.08697849870e-07  2.11322945661e-07
  2.13981061092e-07  2.16672611500e-07  2.19398017444e-07  2.22157704774e-07
  2.24952104698e-07  2.27781653846e-07  2.30646794341e-07  2.33547973867e-07
  2.36485645738e-07  2.39460268973e-07  2.42472308362e-07  2.45522234543e-07
  2.48610524073e-07  2.51737659502e-07  2.54904129453e-07  2.58110428693e-07
  2.61357058212e-07  2.64644525304e-07  2.67973343641e-07  2.71344033358e-07
  2.74757121132e-07  2.78213140266e-07  2.81712630769e-07  2.85256139443e-07
  2.88844219970e-07  2.92477432994e-07  2.96156346211e-07  2.99881534461e-07
  3.03653579810e-07  3.07473071649e-07  3.11340606780e-07  3.15256789515e-07
  3.19222231765e-07  3.23237553138e-07  3.27303381036e-07  3.31420350754e-07
  3.35589105575e-07  3.39810296877e-07  3.44084584230e-07  3.48412635498e-07
  3.52795126950e-07  3.57232743358e-07  3.61726178109e-07  3.66276133312e-07
  3.70883319905e-07  3.75548457772e-07  3.80272275849e-07  3.85055512243e-07
  3.89898914344e-07  3.94803238944e-07  3.99769252353e-07  4.04797730521e-07
  4.09889459158e-07  4.15045233857e-07  4.20265860219e-07  4.25552153975e-07
  4.30904941122e-07  4.36325058043e-07  4.41813351641e-07  4.47370679475e-07
  4.52997909887e-07  4.58695922145e-07  4.64465606574e-07  4.70307864698e-07
  4.76223609383e-07  4.82213764977e-07  4.88279267452e-07  4.94421064555e-07
  5.00640115957e-07  5.06937393395e-07  5.13313880831e-07  5.19770574607e-07
  5.26308483592e-07  5.32928629348e-07  5.39632046287e-07  5.46419781831e-07
  5.53292896577e-07  5.60252464465e-07  5.67299572939e-07  5.74435323127e-07
  5.81660830002e-07  5.88977222565e-07  5.96385644018e-07  6.03887251941e-07
  6.11483218475e-07  6.19174730507e-07  6.26962989849e-07  6.34849213435e-07
  6.42834633502e-07  6.50920497788e-07  6.59108069726e-07  6.67398628641e-07
  6.75793469950e-07  6.84293905363e-07  6.92901263091e-07  7.01616888052e-07
  7.10442142078e-07  7.19378404135e-07  7.28427070530e-07  7.37589555138e-07
  7.46867289614e-07  7.56261723624e-07  7.65774325066e-07  7.75406580305e-07
  7.85159994400e-07  7.95036091341e-07  8.05036414289e-07  8.15162525815e-07
  8.25416008144e-07  8.35798463403e-07  8.46311513872e-07  8.56956802238e-07
  8.67735991847e-07  8.78650766971e-07  8.89702833064e-07  9.00893917036e-07
  9.12225767514e-07  9.23700155125e-07  9.35318872764e-07  9.47083735881e-07
  9.58996582757e-07  9.71059274801e-07  9.83273696832e-07  9.95641757379e-07
  1.00816538898e-06  1.02084654847e-06  1.03368721731e-06  1.04668940188e-06
  1.05985513380e-06  1.07318647024e-06  1.08668549425e-06  1.10035431508e-06
  1.11419506851e-06  1.12820991718e-06  1.14240105095e-06  1.15677068721e-06
  1.17132107125e-06  1.18605447658e-06  1.20097320534e-06  1.21607958860e-06
  1.23137598678e-06  1.24686478995e-06  1.26254841829e-06  1.27842932239e-06
  1.29450998367e-06  1.31079291477e-06  1.32728065993e-06  1.34397579539e-06
  1.36088092980e-06  1.37799870463e-06  1.39533179456e-06  1.41288290792e-06
  1.43065478711e-06  1.44865020902e-06  1.46687198548e-06  1.48532296366e-06
  1.50400602658e-06  1.52292409350e-06  1.54208012041e-06  1.56147710048e-06
  1.58111806452e-06  1.60100608148e-06  1.62114425889e-06  1.64153574339e-06
  1.66218372119e-06  1.68309141858e-06  1.70426210242e-06  1.72569908069e-06
  1.74740570295e-06  1.76938536091e-06  1.79164148893e-06  1.81417756457e-06
  1.83699710916e-06  1.86010368827e-06  1.88350091238e-06  1.90719243733e-06
  1.93118196498e-06  1.95547324374e-06  1.98007006918e-06  2.00497628459e-06
  2.03019578163e-06  2.05573250089e-06  2.08159043253e-06  2.10777361691e-06
  2.13428614521e-06  2.16113216006e-06  2.18831585621e-06  2.21584148116e-06
  2.24371333586e-06  2.27193577532e-06  2.30051320938e-06  2.32945010330e-06