<PP_INFO>
Generated using virtual.x code                                                  
Author and generation date: unknown. Refer to original pseudopotential files    
Pseudo = x modified/19k.9.ns.special_grid.UPF + (1-x) modified/56ba.10.ns.UPF, w
</PP_INFO>


<PP_HEADER>
   0                   Version Number
  Xx                   Element
   NC                  Norm - Conserving pseudopotential
    F                  Nonlinear Core Correction
SLA  PW   PBE  PBE     PBE  Exchange-Correlation functional
    9.50000000000      Z valence
    0.00000000000      Total energy
  0.0000000  0.0000000 Suggested cutoff for wfc and rho
    3                  Max angular momentum component
 1251                  Number of points in mesh
    0   10             Number of Wavefunctions, Number of Projectors
 Wavefunctions         nl  l   occ
</PP_HEADER>


<PP_MESH>
  <PP_R>
  1.62836065278E-05  1.64884290834E-05  1.66958279896E-05  1.69058356529E-05
  1.71184848874E-05  1.73338089200E-05  1.75518413955E-05  1.77726163820E-05
  1.79961683759E-05  1.82225323077E-05  1.84517435473E-05  1.86838379093E-05
  1.89188516591E-05  1.91568215179E-05  1.93977846690E-05  1.96417787635E-05
  1.98888419258E-05  2.01390127602E-05  2.03923303562E-05  2.06488342954E-05
  2.09085646570E-05  2.11715620243E-05  2.14378674913E-05  2.17075226686E-05
  2.19805696906E-05  2.22570512213E-05  2.25370104615E-05  2.28204911555E-05
  2.31075375976E-05  2.33981946395E-05  2.36925076969E-05  2.39905227569E-05
  2.42922863848E-05  2.45978457319E-05  2.49072485424E-05  2.52205431612E-05
  2.55377785412E-05  2.58590042510E-05  2.61842704829E-05  2.65136280603E-05
  2.68471284460E-05  2.71848237502E-05  2.75267667384E-05  2.78730108399E-05
  2.82236101560E-05  2.85786194687E-05  2.89380942487E-05  2.93020906649E-05
  2.96706655924E-05  3.00438766217E-05  3.04217820679E-05  3.08044409794E-05
  3.11919131475E-05  3.15842591155E-05  3.19815401882E-05  3.23838184417E-05
  3.27911567327E-05  3.32036187086E-05  3.36212688175E-05  3.40441723180E-05
  3.44723952898E-05  3.49060046434E-05  3.53450681313E-05  3.57896543580E-05
  3.62398327910E-05  3.66956737716E-05  3.71572485259E-05  3.76246291759E-05
  3.80978887507E-05  3.85771011981E-05  3.90623413961E-05  3.95536851644E-05
  4.00512092765E-05  4.05549914716E-05  4.10651104665E-05  4.15816459685E-05
  4.21046786873E-05  4.26342903478E-05  4.31705637029E-05  4.37135825465E-05
  4.42634317262E-05  4.48201971572E-05  4.53839658352E-05  4.59548258501E-05
  4.65328664002E-05  4.71181778052E-05  4.77108515214E-05  4.83109801552E-05
  4.89186574780E-05  4.95339784405E-05  5.01570391880E-05  5.07879370748E-05
  5.14267706801E-05  5.20736398230E-05  5.27286455781E-05  5.33918902913E-05
  5.40634775960E-05  5.47435124291E-05  5.54321010473E-05  5.61293510441E-05
  5.68353713662E-05  5.75502723308E-05  5.82741656424E-05  5.90071644110E-05
  5.97493831691E-05  6.05009378899E-05  6.12619460053E-05  6.20325264244E-05
  6.28127995520E-05  6.36028873073E-05  6.44029131431E-05  6.52130020652E-05
  6.60332806515E-05  6.68638770722E-05  6.77049211098E-05  6.85565441790E-05
  6.94188793478E-05  7.02920613577E-05  7.11762266451E-05  7.20715133628E-05
  7.29780614011E-05  7.38960124100E-05  7.48255098212E-05  7.57666988704E-05
  7.67197266206E-05  7.76847419841E-05  7.86618957466E-05  7.96513405903E-05
  8.06532311181E-05  8.16677238773E-05  8.26949773845E-05  8.37351521502E-05
  8.47884107038E-05  8.58549176190E-05  8.69348395398E-05  8.80283452062E-05
  8.91356054805E-05  9.02567933746E-05  9.13920840763E-05  9.25416549770E-05
  9.37056856997E-05  9.48843581263E-05  9.60778564270E-05  9.72863670882E-05
  9.85100789422E-05  9.97491831964E-05  1.01003873463E-04  1.02274345791E-04
  1.03560798694E-04  1.04863433181E-04  1.06182452794E-04  1.07518063631E-04
  1.08870474384E-04  1.10239896370E-04  1.11626543565E-04  1.13030632634E-04
  1.14452382969E-04  1.15892016722E-04  1.17349758838E-04  1.18825837093E-04
  1.20320482127E-04  1.21833927480E-04  1.23366409633E-04  1.24918168038E-04
  1.26489445162E-04  1.28080486518E-04  1.29691540711E-04  1.31322859471E-04
  1.32974697695E-04  1.34647313486E-04  1.36340968194E-04  1.38055926455E-04
  1.39792456236E-04  1.41550828873E-04  1.43331319114E-04  1.45134205166E-04
  1.46959768733E-04  1.48808295062E-04  1.50680072990E-04  1.52575394986E-04
  1.54494557199E-04  1.56437859500E-04  1.58405605534E-04  1.60398102767E-04
  1.62415662530E-04  1.64458600071E-04  1.66527234602E-04  1.68621889353E-04
  1.70742891617E-04  1.72890572805E-04  1.75065268497E-04  1.77267318493E-04
  1.79497066868E-04  1.81754862026E-04  1.84041056750E-04  1.86356008264E-04
  1.88700078283E-04  1.91073633073E-04  1.93477043508E-04  1.95910685124E-04
  1.98374938183E-04  2.00870187730E-04  2.03396823652E-04  2.05955240742E-04
  2.08545838757E-04  2.11169022484E-04  2.13825201800E-04  2.16514791739E-04
  2.19238212555E-04  2.21995889787E-04  2.24788254329E-04  2.27615742493E-04
  2.30478796080E-04  2.33377862448E-04  2.36313394581E-04  2.39285851163E-04
  2.42295696646E-04  2.45343401325E-04  2.48429441410E-04  2.51554299100E-04
  2.54718462661E-04  2.57922426500E-04  2.61166691243E-04  2.64451763813E-04
  2.67778157509E-04  2.71146392086E-04  2.74556993840E-04  2.78010495682E-04
  2.81507437230E-04  2.85048364887E-04  2.88633831932E-04  2.92264398599E-04
  2.95940632174E-04  2.99663107075E-04  3.03432404946E-04  3.07249114747E-04
  3.11113832848E-04  3.15027163118E-04  3.18989717023E-04  3.23002113721E-04
  3.27064980156E-04  3.31178951159E-04  3.35344669548E-04  3.39562786223E-04
  3.43833960275E-04  3.48158859082E-04  3.52538158420E-04  3.56972542561E-04
  3.61462704389E-04  3.66009345500E-04  3.70613176316E-04  3.75274916195E-04
  3.79995293542E-04  3.84775045928E-04  3.89614920197E-04  3.94515672590E-04
  3.99478068860E-04  4.04502884391E-04  4.09590904320E-04  4.14742923662E-04
  4.19959747429E-04  4.25242190761E-04  4.30591079050E-04  4.36007248072E-04
  4.41491544113E-04  4.47044824106E-04  4.52667955763E-04  4.58361817709E-04
  4.64127299621E-04  4.69965302368E-04  4.75876738149E-04  4.81862530639E-04
  4.87923615130E-04  4.94060938679E-04  5.00275460254E-04  5.06568150888E-04
  5.12939993826E-04  5.19391984681E-04  5.25925131591E-04  5.32540455373E-04
  5.39238989684E-04  5.46021781185E-04  5.52889889700E-04  5.59844388384E-04
  5.66886363894E-04  5.74016916551E-04  5.81237160520E-04  5.88548223977E-04
  5.95951249292E-04  6.03447393201E-04  6.11037826994E-04  6.18723736690E-04
  6.26506323229E-04  6.34386802656E-04  6.42366406311E-04  6.50446381024E-04
  6.58627989308E-04  6.66912509555E-04  6.75301236238E-04  6.83795480113E-04
  6.92396568424E-04  7.01105845106E-04  7.09924671004E-04  7.18854424076E-04
  7.27896499614E-04  7.37052310461E-04  7.46323287231E-04  7.55710878533E-04
  7.65216551197E-04  7.74841790504E-04  7.84588100418E-04  7.94457003818E-04
  8.04450042742E-04  8.14568778622E-04  8.24814792530E-04  8.35189685428E-04
  8.45695078413E-04  8.56332612975E-04  8.67103951250E-04  8.78010776282E-04
  8.89054792283E-04  9.00237724905E-04  9.11561321503E-04  9.23027351412E-04
  9.34637606222E-04  9.46393900060E-04  9.58298069870E-04  9.70351975704E-04
  9.82557501007E-04  9.94916552920E-04  1.00743106257E-03  1.02010298537E-03
  1.03293430134E-03  1.04592701539E-03  1.05908315767E-03  1.07240478384E-03
  1.08589397545E-03  1.09955284020E-03  1.11338351232E-03  1.12738815287E-03
  1.14156895012E-03  1.15592811984E-03  1.17046790568E-03  1.18519057951E-03
  1.20009844178E-03  1.21519382188E-03  1.23047907848E-03  1.24595659994E-03
  1.26162880465E-03  1.27749814143E-03  1.29356708990E-03  1.30983816085E-03
  1.32631389668E-03  1.34299687176E-03  1.35988969283E-03  1.37699499943E-03
  1.39431546431E-03  1.41185379381E-03  1.42961272833E-03  1.44759504276E-03
  1.46580354686E-03  1.48424108574E-03  1.50291054031E-03  1.52181482771E-03
  1.54095690177E-03  1.56033975349E-03  1.57996641147E-03  1.59983994241E-03
  1.61996345160E-03  1.64034008337E-03  1.66097302162E-03  1.68186549028E-03
  1.70302075385E-03  1.72444211787E-03  1.74613292949E-03  1.76809657793E-03
  1.79033649505E-03  1.81285615589E-03  1.83565907920E-03  1.85874882797E-03
  1.88212901003E-03  1.90580327858E-03  1.92977533276E-03  1.95404891827E-03
  1.97862782790E-03  2.00351590215E-03  2.02871702984E-03  2.05423514868E-03
  2.08007424596E-03  2.10623835906E-03  2.13273157619E-03  2.15955803697E-03
  2.18672193309E-03  2.21422750896E-03  2.24207906238E-03  2.27028094521E-03
  2.29883756407E-03  2.32775338097E-03  2.35703291407E-03  2.38668073836E-03
  2.41670148637E-03  2.44709984890E-03  2.47788057577E-03  2.50904847651E-03
  2.54060842119E-03  2.57256534110E-03  2.60492422958E-03  2.63769014276E-03
  2.67086820040E-03  2.70446358663E-03  2.73848155080E-03  2.77292740828E-03
  2.80780654131E-03  2.84312439983E-03  2.87888650232E-03  2.91509843668E-03
  2.95176586110E-03  2.98889450494E-03  3.02649016963E-03  3.06455872957E-03
  3.10310613304E-03  3.14213840316E-03  3.18166163880E-03  3.22168201554E-03
  3.26220578666E-03  3.30323928406E-03  3.34478891932E-03  3.38686118466E-03
  3.42946265394E-03  3.47259998375E-03  3.51627991436E-03  3.56050927087E-03
  3.60529496419E-03  3.65064399219E-03  3.69656344073E-03  3.74306048484E-03
  3.79014238976E-03  3.83781651215E-03  3.88609030116E-03  3.93497129970E-03
  3.98446714551E-03  4.03458557241E-03  4.08533441152E-03  4.13672159244E-03
  4.18875514453E-03  4.24144319813E-03  4.29479398586E-03  4.34881584389E-03
  4.40351721324E-03  4.45890664112E-03  4.51499278223E-03  4.57178440015E-03
  4.62929036868E-03  4.68751967325E-03  4.74648141230E-03  4.80618479874E-03
  4.86663916132E-03  4.92785394618E-03  4.98983871824E-03  5.05260316275E-03
  5.11615708679E-03  5.18051042078E-03  5.24567322006E-03  5.31165566646E-03
  5.37846806986E-03  5.44612086984E-03  5.51462463729E-03  5.58399007605E-03
  5.65422802463E-03  5.72534945783E-03  5.79736548854E-03  5.87028736940E-03
  5.94412649461E-03  6.01889440167E-03  6.09460277323E-03  6.17126343887E-03
  6.24888837698E-03  6.32748971662E-03  6.40707973939E-03  6.48767088141E-03
  6.56927573520E-03  6.65190705170E-03  6.73557774220E-03  6.82030088043E-03
  6.90608970454E-03  6.99295761923E-03  7.08091819777E-03  7.16998518418E-03
  7.26017249537E-03  7.35149422328E-03  7.44396463712E-03  7.53759818557E-03
  7.63240949908E-03  7.72841339211E-03  7.82562486545E-03  7.92405910859E-03
  8.02373150209E-03  8.12465761997E-03  8.22685323212E-03  8.33033430684E-03
  8.43511701323E-03  8.54121772382E-03  8.64865301706E-03  8.75743967993E-03
  8.86759471056E-03  8.97913532091E-03  9.09207893942E-03  9.20644321376E-03
  9.32224601359E-03  9.43950543332E-03  9.55823979498E-03  9.67846765106E-03
  9.80020778739E-03  9.92347922614E-03  1.00483012287E-02  1.01746932988E-02
  1.03026751854E-02  1.04322668859E-02  1.05634886494E-02  1.06963609795E-02
  1.08309046377E-02  1.09671406469E-02  1.11050902940E-02  1.12447751341E-02
  1.13862169932E-02  1.15294379719E-02  1.16744604487E-02  1.18213070838E-02
  1.19700008221E-02  1.21205648973E-02  1.22730228356E-02  1.24273984585E-02
  1.25837158878E-02  1.27419995483E-02  1.29022741722E-02  1.30645648026E-02
  1.32288967979E-02  1.33952958352E-02  1.35637879147E-02  1.37343993637E-02
  1.39071568406E-02  1.40820873389E-02  1.42592181921E-02  1.44385770772E-02
  1.46201920192E-02  1.48040913961E-02  1.49903039423E-02  1.51788587540E-02
  1.53697852933E-02  1.55631133928E-02  1.57588732604E-02  1.59570954841E-02
  1.61578110364E-02  1.63610512795E-02  1.65668479702E-02  1.67752332645E-02
  1.69862397232E-02  1.71999003164E-02  1.74162484291E-02  1.76353178660E-02
  1.78571428571E-02  1.80817580632E-02  1.83091985808E-02  1.85394999479E-02
  1.87726981496E-02  1.90088296235E-02  1.92479312658E-02  1.94900404365E-02
  1.97351949656E-02  1.99834331592E-02  2.02347938048E-02  2.04893161781E-02
  2.07470400487E-02  2.10080056866E-02  2.12722538681E-02  2.15398258825E-02
  2.18107635386E-02  2.20851091708E-02  2.23629056463E-02  2.26441963713E-02
  2.29290252980E-02  2.32174369316E-02  2.35094763369E-02  2.38051891458E-02
  2.41046215639E-02  2.44078203781E-02  2.47148329639E-02  2.50257072927E-02
  2.53404919392E-02  2.56592360890E-02  2.59819895468E-02  2.63088027432E-02
  2.66397267436E-02  2.69748132555E-02  2.73141146368E-02  2.76576839042E-02
  2.80055747409E-02  2.83578415056E-02  2.87145392408E-02  2.90757236812E-02
  2.94414512625E-02  2.98117791305E-02  3.01867651496E-02  3.05664679122E-02
  3.09509467476E-02  3.13402617314E-02  3.17344736949E-02  3.21336442344E-02
  3.25378357213E-02  3.29471113111E-02  3.33615349541E-02  3.37811714049E-02
  3.42060862324E-02  3.46363458305E-02  3.50720174280E-02  3.55131690997E-02
  3.59598697763E-02  3.64121892556E-02  3.68701982137E-02  3.73339682152E-02
  3.78035717252E-02  3.82790821202E-02  3.87605736997E-02  3.92481216977E-02
  3.97418022945E-02  4.02416926288E-02  4.07478708095E-02  4.12604159278E-02
  4.17794080701E-02  4.23049283299E-02  4.28370588208E-02  4.33758826894E-02
  4.39214841278E-02  4.44739483875E-02  4.50333617921E-02  4.55998117511E-02
  4.61733867735E-02  4.67541764815E-02  4.73422716247E-02  4.79377640941E-02
  4.85407469368E-02  4.91513143699E-02  4.97695617958E-02  5.03955858171E-02
  5.10294842511E-02  5.16713561459E-02  5.23213017952E-02  5.29794227544E-02
  5.36458218562E-02  5.43206032268E-02  5.50038723021E-02  5.56957358444E-02
  5.63963019587E-02  5.71056801100E-02  5.78239811400E-02  5.85513172846E-02
  5.92878021917E-02  6.00335509385E-02  6.07886800498E-02  6.15533075161E-02
  6.23275528118E-02  6.31115369145E-02  6.39053823232E-02  6.47092130780E-02
  6.55231547789E-02  6.63473346061E-02  6.71818813393E-02  6.80269253781E-02
  6.88825987624E-02  6.97490351930E-02  7.06263700522E-02  7.15147404253E-02
  7.24142851222E-02  7.33251446985E-02  7.42474614778E-02  7.51813795740E-02
  7.61270449137E-02  7.70846052591E-02  7.80542102309E-02  7.90360113318E-02
  8.00301619703E-02  8.10368174845E-02  8.20561351662E-02  8.30882742860E-02
  8.41333961177E-02  8.51916639637E-02  8.62632431805E-02  8.73483012046E-02
  8.84470075785E-02  8.95595339772E-02  9.06860542354E-02  9.18267443740E-02
  9.29817826282E-02  9.41513494752E-02  9.53356276620E-02  9.65348022347E-02
  9.77490605666E-02  9.89785923880E-02  1.00223589816E-01  1.01484247384E-01
  1.02760762072E-01  1.04053333338E-01  1.05362163149E-01  1.06687456012E-01
  1.08029419007E-01  1.09388261819E-01  1.10764196770E-01  1.12157438851E-01
  1.13568205761E-01  1.14996717933E-01  1.16443198577E-01  1.17907873708E-01
  1.19390972184E-01  1.20892725742E-01  1.22413369034E-01  1.23953139664E-01
  1.25512278225E-01  1.27091028334E-01  1.28689636675E-01  1.30308353034E-01
  1.31947430338E-01  1.33607124696E-01  1.35287695440E-01  1.36989405161E-01
  1.38712519755E-01  1.40457308463E-01  1.42224043911E-01  1.44013002156E-01
  1.45824462724E-01  1.47658708662E-01  1.49516026574E-01  1.51396706669E-01
  1.53301042807E-01  1.55229332545E-01  1.57181877182E-01  1.59158981807E-01
  1.61160955347E-01  1.63188110614E-01  1.65240764355E-01  1.67319237302E-01
  1.69423854221E-01  1.71554943961E-01  1.73712839510E-01  1.75897878044E-01
  1.78110400979E-01  1.80350754026E-01  1.82619287246E-01  1.84916355101E-01
  1.87242316513E-01  1.89597534918E-01  1.91982378323E-01  1.94397219365E-01
  1.96842435369E-01  1.99318408403E-01  2.01825525344E-01  2.04364177934E-01
  2.06934762843E-01  2.09537681730E-01  2.12173341305E-01  2.14842153397E-01
  2.17544535013E-01  2.20280908404E-01  2.23051701136E-01  2.25857346150E-01
  2.28698281833E-01  2.31574952089E-01  2.34487806402E-01  2.37437299911E-01
  2.40423893482E-01  2.43448053776E-01  2.46510253323E-01  2.49610970598E-01
  2.52750690096E-01  2.55929902403E-01  2.59149104278E-01  2.62408798728E-01
  2.65709495087E-01  2.69051709095E-01  2.72435962980E-01  2.75862785538E-01
  2.79332712218E-01  2.82846285202E-01  2.86404053494E-01  2.90006573002E-01
  2.93654406627E-01  2.97348124350E-01  3.01088303323E-01  3.04875527956E-01
  3.08710390010E-01  3.12593488691E-01  3.16525430740E-01  3.20506830532E-01
  3.24538310169E-01  3.28620499576E-01  3.32754036605E-01  3.36939567130E-01
  3.41177745147E-01  3.45469232881E-01  3.49814700886E-01  3.54214828149E-01
  3.58670302200E-01  3.63181819215E-01  3.67750084129E-01  3.72375810741E-01
  3.77059721831E-01  3.81802549270E-01  3.86605034134E-01  3.91467926821E-01
  3.96391987169E-01  4.01377984570E-01  4.06426698099E-01  4.11538916626E-01
  4.16715438945E-01  4.21957073900E-01  4.27264640507E-01  4.32638968082E-01
  4.38080896377E-01  4.43591275703E-01  4.49170967068E-01  4.54820842311E-01
  4.60541784236E-01  4.66334686751E-01  4.72200455010E-01  4.78140005551E-01
  4.84154266440E-01  4.90244177419E-01  4.96410690048E-01  5.02654767857E-01
  5.08977386496E-01  5.15379533887E-01  5.21862210379E-01  5.28426428903E-01
  5.35073215132E-01  5.41803607639E-01  5.48618658063E-01  5.55519431267E-01
  5.62507005513E-01  5.69582472623E-01  5.76746938154E-01  5.84001521567E-01
  5.91347356405E-01  5.98785590471E-01  6.06317386004E-01  6.13943919863E-01
  6.21666383707E-01  6.29485984189E-01  6.37403943137E-01  6.45421497747E-01
  6.53539900780E-01  6.61760420752E-01  6.70084342136E-01  6.78512965561E-01
  6.87047608018E-01  6.95689603062E-01  7.04440301021E-01  7.13301069211E-01
  7.22273292144E-01  7.31358371748E-01  7.40557727586E-01  7.49872797076E-01
  7.59305035715E-01  7.68855917312E-01  7.78526934209E-01  7.88319597524E-01
  7.98235437380E-01  8.08276003147E-01  8.18442863685E-01  8.28737607584E-01
  8.39161843421E-01  8.49717200003E-01  8.60405326627E-01  8.71227893333E-01
  8.82186591170E-01  8.93283132457E-01  9.04519251051E-01  9.15896702618E-01
  9.27417264908E-01  9.39082738032E-01  9.50894944745E-01  9.62855730728E-01
  9.74966964878E-01  9.87230539599E-01  9.99648371101E-01  1.01222239969E+00
  1.02495459010E+00  1.03784693174E+00  1.05090143908E+00  1.06412015190E+00
  1.07750513567E+00  1.09105848180E+00  1.10478230804E+00  1.11867875877E+00
  1.13275000532E+00  1.14699824637E+00  1.16142570823E+00  1.17603464522E+00
  1.19082734002E+00  1.20580610401E+00  1.22097327765E+00  1.23633123086E+00
  1.25188236333E+00  1.26762910498E+00  1.28357391624E+00  1.29971928855E+00
  1.31606774464E+00  1.33262183899E+00  1.34938415821E+00  1.36635732145E+00
  1.38354398081E+00  1.40094682173E+00  1.41856856343E+00  1.43641195937E+00
  1.45447979759E+00  1.47277490124E+00  1.49130012897E+00  1.51005837537E+00
  1.52905257147E+00  1.54828568514E+00  1.56776072160E+00  1.58748072387E+00
  1.60744877322E+00  1.62766798972E+00  1.64814153265E+00  1.66887260106E+00
  1.68986443420E+00  1.71112031209E+00  1.73264355602E+00  1.75443752902E+00
  1.77650563646E+00  1.79885132652E+00  1.82147809076E+00  1.84438946466E+00
  1.86758902816E+00  1.89108040625E+00  1.91486726950E+00  1.93895333466E+00
  1.96334236522E+00  1.98803817202E+00  2.01304461382E+00  2.03836559795E+00
  2.06400508084E+00  2.08996706873E+00  2.11625561823E+00  2.14287483697E+00
  2.16982888426E+00  2.19712197174E+00  2.22475836399E+00  2.25274237926E+00
  2.28107839011E+00  2.30977082410E+00  2.33882416448E+00  2.36824295089E+00
  2.39803178009E+00  2.42819530663E+00  2.45873824362E+00  2.48966536347E+00
  2.52098149860E+00  2.55269154221E+00  2.58480044907E+00  2.61731323627E+00
  2.65023498397E+00  2.68357083629E+00  2.71732600201E+00  2.75150575545E+00
  2.78611543726E+00  2.82116045527E+00  2.85664628535E+00  2.89257847222E+00
  2.92896263036E+00  2.96580444487E+00  3.00310967235E+00  3.04088414184E+00
  3.07913375566E+00  3.11786449039E+00  3.15708239779E+00  3.19679360574E+00
  3.23700431920E+00  3.27772082116E+00  3.31894947368E+00  3.36069671880E+00
  3.40296907962E+00  3.44577316128E+00  3.48911565201E+00  3.53300332416E+00
  3.57744303526E+00  3.62244172912E+00  3.66800643687E+00  3.71414427809E+00
  3.76086246190E+00  3.80816828813E+00  3.85606914840E+00  3.90457252732E+00
  3.95368600365E+00  4.00341725145E+00  4.05377404134E+00  4.10476424168E+00
  4.15639581978E+00  4.20867684318E+00  4.26161548090E+00  4.31522000472E+00
  4.36949879043E+00  4.42446031922E+00  4.48011317894E+00  4.53646606546E+00
  4.59352778403E+00  4.65130725066E+00  4.70981349352E+00  4.76905565431E+00
  4.82904298975E+00  4.88978487299E+00  4.95129079506E+00  5.01357036639E+00
  5.07663331828E+00  5.14048950447E+00  5.20514890260E+00  5.27062161583E+00
  5.33691787441E+00  5.40404803727E+00  5.47202259363E+00  5.54085216465E+00
  5.61054750510E+00  5.68111950501E+00  5.75257919140E+00  5.82493772999E+00
  5.89820642696E+00  5.97239673068E+00  6.04752023353E+00  6.12358867373E+00
  6.20061393712E+00  6.27860805905E+00  6.35758322626E+00  6.43755177879E+00
  6.51852621188E+00  6.60051917795E+00  6.68354348858E+00  6.76761211647E+00
  6.85273819752E+00  6.93893503286E+00  7.02621609091E+00  7.11459500953E+00
  7.20408559808E+00  7.29470183967E+00  7.38645789327E+00  7.47936809594E+00
  7.57344696509E+00  7.66870920073E+00  7.76516968779E+00  7.86284349841E+00
  7.96174589433E+00  8.06189232924E+00  8.16329845123E+00  8.26598010521E+00
  8.36995333540E+00  8.47523438783E+00  8.58183971287E+00  8.68978596783E+00
  8.79909001952E+00  8.90976894693E+00  9.02184004387E+00  9.13532082167E+00
  9.25022901193E+00  9.36658256930E+00  9.48439967425E+00  9.60369873594E+00
  9.72449839511E+00  9.84681752693E+00  9.97067524402E+00  1.00960908994E+01
  1.02230840895E+01  1.03516746573E+01  1.04818826954E+01  1.06137285489E+01
  1.07472328191E+01  1.08824163664E+01  1.10193003133E+01  1.11579060483E+01
  1.12982552288E+01  1.14403697847E+01  1.15842719216E+01  1.17299841246E+01
  1.18775291615E+01  1.20269300865E+01  1.21782102438E+01  1.23313932712E+01
  1.24865031039E+01  1.26435639781E+01  1.28026004349E+01  1.29636373240E+01
  1.31266998079E+01  1.32918133653E+01  1.34590037956E+01  1.36282972226E+01
  1.37997200988E+01  1.39732992094E+01  1.41490616763E+01  1.43270349630E+01
  1.45072468780E+01  1.46897255798E+01  1.48744995812E+01  1.50615977534E+01
  1.52510493308E+01  1.54428839158E+01  1.56371314828E+01  1.58338223833E+01
  1.60329873509E+01  1.62346575053E+01  1.64388643581E+01  1.66456398168E+01
  1.68550161906E+01  1.70670261949E+01  1.72817029569E+01  1.74990800201E+01
  1.77191913501E+01  1.79420713398E+01  1.81677548147E+01  1.83962770383E+01
  1.86276737175E+01  1.88619810087E+01  1.90992355228E+01  1.93394743312E+01
  1.95827349719E+01  1.98290554548E+01  2.00784742679E+01  2.03310303835E+01
  2.05867632640E+01  2.08457128681E+01  2.11079196572E+01  2.13734246018E+01
  2.16422691874E+01  2.19144954216E+01  2.21901458403E+01  2.24692635144E+01
  2.27518920567E+01  2.30380756284E+01  2.33278589462E+01  2.36212872895E+01
  2.39184065070E+01  2.42192630242E+01  2.45239038505E+01  2.48323765867E+01
  2.51447294322E+01  2.54610111929E+01  2.57812712884E+01  2.61055597599E+01
  2.64339272783E+01  2.67664251516E+01  2.71031053333E+01  2.74440204303E+01
  2.77892237114E+01  2.81387691152E+01  2.84927112589E+01  2.88511054467E+01
  2.92140076785E+01  2.95814746584E+01  2.99535638039E+01  3.03303332547E+01
  3.07118418817E+01  3.10981492965E+01  3.14893158605E+01  3.18854026941E+01
  3.22864716867E+01  3.26925855062E+01  3.31038076088E+01  3.35202022486E+01
  3.39418344882E+01  3.43687702085E+01  3.48010761191E+01  3.52388197686E+01
  3.56820695554E+01  3.61308947382E+01  3.65853654468E+01  3.70455526932E+01
  3.75115283825E+01  3.79833653245E+01  3.84611372446E+01  3.89449187956E+01
  3.94347855694E+01  3.99308141087E+01  4.04330819190E+01  4.09416674805E+01
  4.14566502609E+01  4.19781107273E+01  4.25061303588E+01  4.30407916597E+01
  4.35821781719E+01  4.41303744880E+01  4.46854662650E+01  4.52475402370E+01
  4.58166842292E+01  4.63929871715E+01  4.69765391125E+01  4.75674312333E+01
  4.81657558619E+01  4.87716064880E+01  4.93850777767E+01  5.00062655844E+01
  5.06352669728E+01  5.12721802246E+01  5.19171048590E+01  5.25701416466E+01
  5.32313926257E+01  5.39009611183E+01  5.45789517457E+01  5.52654704454E+01
  5.59606244873E+01  5.66645224906E+01  5.73772744408E+01  5.80989917069E+01
  5.88297870586E+01  5.95697746843E+01  6.03190702085E+01  6.10777907100E+01
  6.18460547407E+01  6.26239823432E+01  6.34116950704E+01  6.42093160040E+01
  6.50169697738E+01  6.58347825774E+01  6.66628821997E+01  6.75013980331E+01
  6.83504610971E+01  6.92102040598E+01  7.00807612577E+01  7.09622687171E+01
  7.18548641754E+01  7.27586871024E+01  7.36738787223E+01  7.46005820356E+01
  7.55389418416E+01  7.64891047610E+01  7.74512192586E+01  7.84254356668E+01
  7.94119062089E+01  8.04107850229E+01  8.14222281857E+01  8.24463937372E+01
  8.34834417056E+01  8.45335341315E+01  8.55968350941E+01  8.66735107364E+01
  8.77637292911E+01  8.88676611070E+01  8.99854786757E+01  9.11173566586E+01
  9.22634719139E+01  9.34240035243E+01  9.45991328254E+01  9.57890434334E+01
  9.69939212743E+01  9.82139546128E+01  9.94493340815E+01
  </PP_R>
  <PP_RAB>
  2.03545081597E-07  2.06105363542E-07  2.08697849870E-07  2.11322945661E-07
  2.13981061092E-07  2.16672611500E-07  2.19398017444E-07  2.22157704774E-07
  2.24952104698E-07  2.27781653846E-07  2.30646794341E-07  2.33547973867E-07
  2.36485645738E-07  2.39460268973E-07  2.42472308362E-07  2.45522234543E-07
  2.48610524073E-07  2.51737659502E-07  2.54904129453E-07  2.58110428693E-07
  2.61357058212E-07  2.64644525304E-07  2.67973343641E-07  2.71344033358E-07
  2.74757121132E-07  2.78213140266E-07  2.81712630769E-07  2.85256139443E-07
  2.88844219970E-07  2.92477432994E-07  2.96156346211E-07  2.99881534461E-07
  3.03653579810E-07  3.07473071649E-07  3.11340606780E-07  3.15256789515E-07
  3.19222231765E-07  3.23237553138E-07  3.27303381036E-07  3.31420350754E-07
  3.35589105575E-07  3.39810296877E-07  3.44084584230E-07  3.48412635498E-07
  3.52795126950E-07  3.57232743358E-07  3.61726178109E-07  3.66276133312E-07
  3.70883319905E-07  3.75548457772E-07  3.80272275849E-07  3.85055512243E-07
  3.89898914344E-07  3.94803238944E-07  3.99769252353E-07  4.04797730521E-07
  4.09889459158E-07  4.15045233857E-07  4.20265860219E-07  4.25552153975E-07
  4.30904941122E-07  4.36325058043E-07  4.41813351641E-07  4.47370679475E-07
  4.52997909887E-07  4.58695922145E-07  4.64465606574E-07  4.70307864698E-07
  4.76223609383E-07  4.82213764977E-07  4.88279267452E-07  4.94421064555E-07
  5.00640115957E-07  5.06937393395E-07  5.13313880831E-07  5.19770574607E-07
  5.26308483592E-07  5.32928629348E-07  5.39632046287E-07  5.46419781831E-07
  5.53292896577E-07  5.60252464465E-07  5.67299572939E-07  5.74435323127E-07
  5.81660830002E-07  5.88977222565E-07  5.96385644018E-07  6.03887251941E-07
  6.11483218475E-07  6.19174730507E-07  6.26962989849E-07  6.34849213435E-07
  6.42834633502E-07  6.50920497788E-07  6.59108069726E-07  6.67398628641E-07
  6.75793469950E-07  6.84293905363E-07  6.92901263091E-07  7.01616888052E-07
  7.10442142078E-07  7.19378404135E-07  7.28427070530E-07  7.37589555138E-07
  7.46867289614E-07  7.56261723624E-07  7.65774325066E-07  7.75406580305E-07
  7.85159994400E-07  7.95036091341E-07  8.05036414289E-07  8.15162525815E-07
  8.25416008144E-07  8.35798463403E-07  8.46311513872E-07  8.56956802238E-07
  8.67735991847E-07  8.78650766971E-07  8.89702833064E-07  9.00893917036E-07
  9.12225767514E-07  9.23700155125E-07  9.35318872764E-07  9.47083735881E-07
  9.58996582757E-07  9.71059274801E-07  9.83273696832E-07  9.95641757379E-07
  1.00816538898E-06  1.02084654847E-06  1.03368721731E-06  1.04668940188E-06
  1.05985513380E-06  1.07318647024E-06  1.08668549425E-06  1.10035431508E-06
  1.11419506851E-06  1.12820991718E-06  1.14240105095E-06  1.15677068721E-06
  1.17132107125E-06  1.18605447658E-06  1.20097320534E-06  1.21607958860E-06
  1.23137598678E-06  1.24686478995E-06  1.26254841829E-06  1.27842932239E-06
  1.29450998367E-06  1.31079291477E-06  1.32728065993E-06  1.34397579539E-06
  1.36088092980E-06  1.37799870463E-06  1.39533179456E-06  1.41288290792E-06
  1.43065478711E-06  1.44865020902E-06  1.46687198548E-06  1.48532296366E-06
  1.50400602658E-06  1.52292409350E-06  1.54208012041E-06  1.56147710048E-06
  1.58111806452E-06  1.60100608148E-06  1.62114425889E-06  1.64153574339E-06
  1.66218372119E-06  1.68309141858E-06  1.70426210242E-06  1.72569908069E-06
  1.74740570295E-06  1.76938536091E-06  1.79164148893E-06  1.81417756457E-06
  1.83699710916E-06  1.86010368827E-06  1.88350091238E-06  1.90719243733E-06
  1.93118196498E-06  1.95547324374E-06  1.98007006918E-06  2.00497628459E-06
  2.03019578163E-06  2.05573250089E-06  2.08159043253E-06  2.10777361691E-06
  2.13428614521E-06  2.16113216006E-06  2.18831585621E-06  2.21584148116E-06
  2.24371333586E-06  2.27193577532E-06  2.30051320938E-06  2.32945010330E-06
  2.35875097854E-06  2.38842041342E-06  2.41846304385E-06  2.44888356405E-06
  2.47968672729E-06  2.51087734662E-06  2.54246029565E-06  2.57444050927E-06
  2.60682298446E-06  2.63961278105E-06  2.67281502250E-06  2.70643489674E-06
  2.74047765693E-06  2.77494862234E-06  2.80985317911E-06  2.84519678116E-06
  2.88098495100E-06  2.91722328060E-06  2.95391743226E-06  2.99107313954E-06
  3.02869620808E-06  3.06679251657E-06  3.10536801762E-06  3.14442873875E-06
  3.18398078326E-06  3.22403033125E-06  3.26458364053E-06  3.30564704766E-06
  3.34722696886E-06  3.38932990108E-06  3.43196242300E-06  3.47513119602E-06
  3.51884296537E-06  3.56310456109E-06  3.60792289914E-06  3.65330498249E-06
  3.69925790218E-06  3.74578883844E-06  3.79290506182E-06  3.84061393434E-06
  3.88892291060E-06  3.93783953898E-06  3.98737146279E-06  4.03752642151E-06
  4.08831225195E-06  4.13973688949E-06  4.19180836935E-06  4.24453482779E-06
  4.29792450343E-06  4.35198573853E-06  4.40672698024E-06  4.46215678202E-06
  4.51828380487E-06  4.57511681875E-06  4.63266470395E-06  4.69093645243E-06
  4.74994116928E-06  4.80968807410E-06  4.87018650246E-06  4.93144590738E-06
  4.99347586075E-06  5.05628605489E-06  5.11988630400E-06  5.18428654577E-06