<PP_INFO>
  Converted from the following HGH file using hgh2upf.py by Sinisa Coh:
  >>  Goedecker pseudopotential for K
  >>     19   9  070301 zatom,zion,pspdat
  >>  10 11  1 2 2001 0  pspcod,pspxc,lmax,lloc,mmax,r2well
  >>       0.40000000    2    -3.36355184    -1.08652975                                  rloc nloc c1 c2
  >>      2                                                                               nnonloc
  >>       0.30531772    2    17.85062321    -5.62264870                                  rs ns hs11 hs12
  >>                                          7.25880826                                             hs22
  >>       0.31648432    2     7.33378021    -2.46094505                                  rp np hp11 hp12
  >>                                          2.91182945                                             hp22
  >>                           0.08936707    -0.06986008                                        kp11 kp12
  >>                                          0.08265956                                             kp22
  Generating with spin-orbit potential inculded: False
</PP_INFO>
<PP_HEADER>
  0  Version Number
  K  Element
  NC  Norm conserving
  F  Nonlinear Core Correction
  SLA  PW   PBE  PBE
  9  Z valence
  0.0  Total energy
  0.0 0.0  Suggested cutoff for wfc and rho
  1  Max angular momentum component
  1165  Number of points in mesh
  0 4  Number of wavefunctions, projectors
</PP_HEADER>
<PP_MESH>
  <PP_R>
  4.79937876608e-05  4.85974751931e-05  4.92087561798e-05  4.98277261348e-05
  5.04544817734e-05  5.10891210274e-05  5.17317430605e-05  5.23824482837e-05
  5.30413383710e-05  5.37085162753e-05  5.43840862446e-05  5.50681538380e-05
  5.57608259425e-05  5.64622107895e-05  5.71724179718e-05  5.78915584607e-05
  5.86197446234e-05  5.93570902405e-05  6.01037105237e-05  6.08597221339e-05
  6.16252431995e-05  6.24003933348e-05  6.31852936585e-05  6.39800668128e-05
  6.47848369828e-05  6.55997299154e-05  6.64248729392e-05  6.72603949845e-05
  6.81064266035e-05  6.89630999901e-05  6.98305490014e-05  7.07089091781e-05
  7.15983177657e-05  7.24989137361e-05  7.34108378093e-05  7.43342324752e-05
  7.52692420162e-05  7.62160125294e-05  7.71746919496e-05  7.81454300725e-05
  7.91283785778e-05  8.01236910532e-05  8.11315230184e-05  8.21520319491e-05
  8.31853773019e-05  8.42317205392e-05  8.52912251542e-05  8.63640566966e-05
  8.74503827986e-05  8.85503732009e-05  8.96641997791e-05  9.07920365709e-05
  9.19340598032e-05  9.30904479194e-05  9.42613816074e-05  9.54470438281e-05
  9.66476198436e-05  9.78632972463e-05  9.90942659884e-05  1.00340718411e-04
  1.01602849275e-04  1.02880855791e-04  1.04174937650e-04  1.05485297055e-04
  1.06812138752e-04  1.08155670064e-04  1.09516100918e-04  1.10893643887e-04
  1.12288514213e-04  1.13700929847e-04  1.15131111483e-04  1.16579282590e-04
  1.18045669447e-04  1.19530501179e-04  1.21034009796e-04  1.22556430223e-04
  1.24098000342e-04  1.25658961025e-04  1.27239556177e-04  1.28840032769e-04
  1.30460640877e-04  1.32101633726e-04  1.33763267725e-04  1.35445802506e-04
  1.37149500969e-04  1.38874629321e-04  1.40621457116e-04  1.42390257300e-04
  1.44181306251e-04  1.45994883825e-04  1.47831273396e-04  1.49690761905e-04
  1.51573639899e-04  1.53480201584e-04  1.55410744862e-04  1.57365571385e-04
  1.59344986599e-04  1.61349299791e-04  1.63378824139e-04  1.65433876762e-04
  1.67514778764e-04  1.69621855291e-04  1.71755435578e-04  1.73915853001e-04
  1.76103445130e-04  1.78318553781e-04  1.80561525068e-04  1.82832709461e-04
  1.85132461837e-04  1.87461141537e-04  1.89819112422e-04  1.92206742929e-04
  1.94624406131e-04  1.97072479792e-04  1.99551346429e-04  2.02061393370e-04
  2.04603012815e-04  2.07176601896e-04  2.09782562744e-04  2.12421302543e-04
  2.15093233603e-04  2.17798773419e-04  2.20538344736e-04  2.23312375618e-04
  2.26121299513e-04  2.28965555322e-04  2.31845587464e-04  2.34761845950e-04
  2.37714786453e-04  2.40704870375e-04  2.43732564923e-04  2.46798343180e-04
  2.49902684180e-04  2.53046072982e-04  2.56229000749e-04  2.59451964818e-04
  2.62715468785e-04  2.66020022578e-04  2.69366142541e-04  2.72754351511e-04
  2.76185178904e-04  2.79659160793e-04  2.83176839995e-04  2.86738766155e-04
  2.90345495830e-04  2.93997592579e-04  2.97695627050e-04  3.01440177069e-04
  3.05231827729e-04  3.09071171482e-04  3.12958808235e-04  3.16895345439e-04
  3.20881398185e-04  3.24917589302e-04  3.29004549454e-04  3.33142917236e-04
  3.37333339277e-04  3.41576470338e-04  3.45872973417e-04  3.50223519853e-04
  3.54628789426e-04  3.59089470468e-04  3.63606259971e-04  3.68179863692e-04
  3.72810996266e-04  3.77500381316e-04  3.82248751569e-04  3.87056848967e-04
  3.91925424785e-04  3.96855239749e-04  4.01847064151e-04  4.06901677974e-04
  4.12019871012e-04  4.17202442993e-04  4.22450203705e-04  4.27763973121e-04
  4.33144581527e-04  4.38592869656e-04  4.44109688813e-04  4.49695901013e-04
  4.55352379112e-04  4.61080006946e-04  4.66879679470e-04  4.72752302893e-04
  4.78698794826e-04  4.84720084419e-04  4.90817112512e-04  4.96990831777e-04
  5.03242206871e-04  5.09572214583e-04  5.15981843991e-04  5.22472096611e-04
  5.29043986560e-04  5.35698540707e-04  5.42436798842e-04  5.49259813830e-04
  5.56168651782e-04  5.63164392217e-04  5.70248128233e-04  5.77420966681e-04
  5.84684028329e-04  5.92038448045e-04  5.99485374974e-04  6.07025972713e-04
  6.14661419494e-04  6.22392908374e-04  6.30221647411e-04  6.38148859863e-04
  6.46175784372e-04  6.54303675162e-04  6.62533802233e-04  6.70867451559e-04
  6.79305925288e-04  6.87850541951e-04  6.96502636660e-04  7.05263561323e-04
  7.14134684853e-04  7.23117393380e-04  7.32213090470e-04  7.41423197346e-04
  7.50749153105e-04  7.60192414947e-04  7.69754458400e-04  7.79436777553e-04
  7.89240885288e-04  7.99168313518e-04  8.09220613422e-04  8.19399355694e-04
  8.29706130782e-04  8.40142549141e-04  8.50710241482e-04  8.61410859030e-04
  8.72246073777e-04  8.83217578747e-04  8.94327088262e-04  9.05576338203e-04
  9.16967086289e-04  9.28501112348e-04  9.40180218595e-04  9.52006229915e-04
  9.63980994144e-04  9.76106382365e-04  9.88384289194e-04  1.00081663308e-03
  1.01340535660e-03  1.02615242677e-03  1.03905983534e-03  1.05212959913e-03
  1.06536376031e-03  1.07876438674e-03  1.09233357230e-03  1.10607343721e-03
  1.11998612834e-03  1.13407381958e-03  1.14833871216e-03  1.16278303500e-03
  1.17740904506e-03  1.19221902768e-03  1.20721529694e-03  1.22240019606e-03
  1.23777609768e-03  1.25334540435e-03  1.26911054878e-03  1.28507399432e-03
  1.30123823528e-03  1.31760579737e-03  1.33417923804e-03  1.35096114693e-03
  1.36795414625e-03  1.38516089119e-03  1.40258407033e-03  1.42022640609e-03
  1.43809065512e-03  1.45617960874e-03  1.47449609338e-03  1.49304297104e-03
  1.51182313970e-03  1.53083953380e-03  1.55009512469e-03  1.56959292110e-03
  1.58933596960e-03  1.60932735507e-03  1.62957020122e-03  1.65006767103e-03
  1.67082296727e-03  1.69183933299e-03  1.71312005206e-03  1.73466844962e-03
  1.75648789265e-03  1.77858179049e-03  1.80095359535e-03  1.82360680288e-03
  1.84654495268e-03  1.86977162888e-03  1.89329046071e-03  1.91710512302e-03
  1.94121933691e-03  1.96563687027e-03  1.99036153839e-03  2.01539720454e-03
  2.04074778062e-03  2.06641722768e-03  2.09240955664e-03  2.11872882885e-03
  2.14537915676e-03  2.17236470452e-03  2.19968968868e-03  2.22735837883e-03
  2.25537509827e-03  2.28374422464e-03  2.31247019071e-03  2.34155748494e-03
  2.37101065229e-03  2.40083429488e-03  2.43103307272e-03  2.46161170442e-03
  2.49257496795e-03  2.52392770140e-03  2.55567480368e-03  2.58782123536e-03
  2.62037201936e-03  2.65333224183e-03  2.68670705285e-03  2.72050166732e-03
  2.75472136571e-03  2.78937149491e-03  2.82445746909e-03  2.85998477049e-03
  2.89595895034e-03  2.93238562966e-03  2.96927050020e-03  3.00661932530e-03
  3.04443794078e-03  3.08273225589e-03  3.12150825418e-03  3.16077199449e-03
  3.20052961185e-03  3.24078731848e-03  3.28155140472e-03  3.32282824004e-03
  3.36462427404e-03  3.40694603742e-03  3.44980014305e-03  3.49319328698e-03
  3.53713224946e-03  3.58162389605e-03  3.62667517867e-03  3.67229313665e-03
  3.71848489792e-03  3.76525768001e-03  3.81261879128e-03  3.86057563199e-03
  3.90913569549e-03  3.95830656940e-03  4.00809593677e-03  4.05851157728e-03
  4.10956136848e-03  4.16125328701e-03  4.21359540983e-03  4.26659591550e-03
  4.32026308547e-03  4.37460530533e-03  4.42963106617e-03  4.48534896588e-03
  4.54176771049e-03  4.59889611555e-03  4.65674310748e-03  4.71531772499e-03
  4.77462912050e-03  4.83468656151e-03  4.89549943214e-03  4.95707723451e-03
  5.01942959029e-03  5.08256624216e-03  5.14649705533e-03  5.21123201915e-03
  5.27678124857e-03  5.34315498579e-03  5.41036360186e-03  5.47841759824e-03
  5.54732760852e-03  5.61710440002e-03  5.68775887552e-03  5.75930207491e-03
  5.83174517696e-03  5.90509950107e-03  5.97937650899e-03  6.05458780665e-03
  6.13074514597e-03  6.20786042670e-03  6.28594569825e-03  6.36501316160e-03
  6.44507517121e-03  6.52614423693e-03  6.60823302596e-03  6.69135436484e-03
  6.77552124146e-03  6.86074680706e-03  6.94704437831e-03  7.03442743937e-03
  7.12290964403e-03  7.21250481782e-03  7.30322696016e-03  7.39509024656e-03
  7.48810903087e-03  7.58229784744e-03  7.67767141349e-03  7.77424463131e-03
  7.87203259067e-03  7.97105057113e-03  8.07131404447e-03  8.17283867705e-03
  8.27564033230e-03  8.37973507318e-03  8.48513916473e-03  8.59186907652e-03
  8.69994148535e-03  8.80937327773e-03  8.92018155260e-03  9.03238362400e-03
  9.14599702371e-03  9.26103950406e-03  9.37752904068e-03  9.49548383529e-03
  9.61492231856e-03  9.73586315302e-03  9.85832523589e-03  9.98232770214e-03
  1.01078899274e-02  1.02350315310e-02  1.03637723792e-02  1.04941325878e-02
  1.06261325260e-02  1.07597928191e-02  1.08951343516e-02  1.10321782711e-02
  1.11709459909e-02  1.13114591937e-02  1.14537398350e-02  1.15978101465e-02
  1.17436926394e-02  1.18914101082e-02  1.20409856340e-02  1.21924425883e-02
  1.23458046365e-02  1.25010957419e-02  1.26583401689e-02  1.28175624873e-02
  1.29787875759e-02  1.31420406265e-02  1.33073471476e-02  1.34747329688e-02
  1.36442242445e-02  1.38158474580e-02  1.39896294257e-02  1.41655973015e-02
  1.43437785807e-02  1.45242011045e-02  1.47068930643e-02  1.48918830060e-02
  1.50791998347e-02  1.52688728191e-02  1.54609315960e-02  1.56554061748e-02
  1.58523269427e-02  1.60517246690e-02  1.62536305099e-02  1.64580760136e-02
  1.66650931252e-02  1.68747141915e-02  1.70869719662e-02  1.73018996151e-02
  1.75195307210e-02  1.77398992891e-02  1.79630397527e-02  1.81889869777e-02
  1.84177762690e-02  1.86494433753e-02  1.88840244951e-02  1.91215562821e-02
  1.93620758511e-02  1.96056207839e-02  1.98522291349e-02  2.01019394370e-02
  2.03547907081e-02  2.06108224567e-02  2.08700746882e-02  2.11325879113e-02
  2.13984031442e-02  2.16675619212e-02  2.19401062989e-02  2.22160788627e-02
  2.24955227341e-02  2.27784815767e-02  2.30649996034e-02  2.33551215832e-02
  2.36488928483e-02  2.39463593010e-02  2.42475674210e-02  2.45525642728e-02
  2.48613975127e-02  2.51741153965e-02  2.54907667871e-02  2.58114011619e-02
  2.61360686206e-02  2.64648198932e-02  2.67977063478e-02  2.71347799985e-02
  2.74760935137e-02  2.78217002245e-02  2.81716541326e-02  2.85260099189e-02
  2.88848229523e-02  2.92481492981e-02  2.96160457267e-02  2.99885697227e-02
  3.03657794937e-02  3.07477339796e-02  3.11344928614e-02  3.15261165711e-02
  3.19226663007e-02  3.23242040118e-02  3.27307924455e-02  3.31424951322e-02
  3.35593764011e-02  3.39815013909e-02  3.44089360595e-02  3.48417471943e-02
  3.52800024229e-02  3.57237702238e-02  3.61731199364e-02  3.66281217726e-02
  3.70888468273e-02  3.75553670898e-02  3.80277554548e-02  3.85060857340e-02
  3.89904326675e-02  3.94808719353e-02  3.99774801697e-02  4.04803349668e-02
  4.09895148985e-02  4.15050995253e-02  4.20271694084e-02  4.25558061222e-02
  4.30910922673e-02  4.36331114832e-02  4.41819484615e-02  4.47376889592e-02
  4.53004198118e-02  4.58702289472e-02  4.64472053992e-02  4.70314393215e-02
  4.76230220019e-02  4.82220458764e-02  4.88286045436e-02  4.94427927797e-02
  5.00647065527e-02  5.06944430379e-02  5.13321006331e-02  5.19777789734e-02
  5.26315789474e-02  5.32936027127e-02  5.39639537118e-02  5.46427366885e-02
  5.53300577040e-02  5.60260241536e-02  5.67307447834e-02  5.74443297075e-02
  5.81668904250e-02  5.88985398375e-02  5.96393922667e-02  6.03895634722e-02
  6.11491706699e-02  6.19183325499e-02  6.26971692954e-02  6.34858026011e-02
  6.42843556926e-02  6.50929533455e-02  6.59117219048e-02  6.67407893048e-02
  6.75802850888e-02  6.84303404299e-02  6.92910881509e-02  7.01626627454e-02
  7.10452003987e-02  7.19388390091e-02  7.28437182095e-02  7.37599793891e-02
  7.46877657154e-02  7.56272221572e-02  7.65784955062e-02  7.75417344010e-02
  7.85170893495e-02  7.95047127530e-02  8.05047589297e-02  8.15173841386e-02
  8.25427466047e-02  8.35810065429e-02  8.46323261835e-02  8.56968697971e-02
  8.67748037211e-02  8.78662963846e-02  8.89715183357e-02  9.00906422676e-02
  9.12238430457e-02  9.23712977348e-02  9.35331856271e-02  9.47096882699e-02
  9.59009894942e-02  9.71072754433e-02  9.83287346017e-02  9.95655578249e-02
  1.00817938369e-01  1.02086071921e-01  1.03370156630e-01  1.04670393136e-01
  1.05986984604e-01  1.07320136753e-01  1.08670057893e-01  1.10036958950e-01
  1.11421053506e-01  1.12822557828e-01  1.14241690904e-01  1.15678674477e-01
  1.17133733079e-01  1.18607094064e-01  1.20098987649e-01  1.21609646945e-01
  1.23139307996e-01  1.24688209814e-01  1.26256594419e-01  1.27844706874e-01
  1.29452795324e-01  1.31081111037e-01  1.32729908440e-01  1.34399445161e-01
  1.36089982069e-01  1.37801783314e-01  1.39535116368e-01  1.41290252067e-01
  1.43067464656e-01  1.44867031827e-01  1.46689234767e-01  1.48534358198e-01
  1.50402690424e-01  1.52294523377e-01  1.54210152660e-01  1.56149877592e-01
  1.58114001260e-01  1.60102830563e-01  1.62116676259e-01  1.64155853015e-01
  1.66220679457e-01  1.68311478219e-01  1.70428575991e-01  1.72572303576e-01
  1.74742995934e-01  1.76940992240e-01  1.79166635936e-01  1.81420274784e-01
  1.83702260919e-01  1.86012950906e-01  1.88352705795e-01  1.90721891177e-01
  1.93120877243e-01  1.95550038839e-01  1.98009755526e-01  2.00500411641e-01
  2.03022396352e-01  2.05576103727e-01  2.08161932785e-01  2.10780287569e-01
  2.13431577202e-01  2.16116215953e-01  2.18834623303e-01  2.21587224008e-01
  2.24374448167e-01  2.27196731290e-01  2.30054514365e-01  2.32948243925e-01
  2.35878372123e-01  2.38845356796e-01  2.41849661542e-01  2.44891755790e-01
  2.47972114873e-01  2.51091220104e-01  2.54249558848e-01  2.57447624603e-01
  2.60685917073e-01  2.63964942249e-01  2.67285212483e-01  2.70647246576e-01
  2.74051569852e-01  2.77498714243e-01  2.80989218372e-01  2.84523627639e-01
  2.88102494301e-01  2.91726377565e-01  2.95395843668e-01  2.99111465973e-01
  3.02873825053e-01  3.06683508784e-01  3.10541112438e-01  3.14447238772e-01
  3.18402498127e-01  3.22407508520e-01  3.26462895742e-01  3.30569293456e-01
  3.34727343295e-01  3.38937694962e-01  3.43201006333e-01  3.47517943560e-01
  3.51889181173e-01  3.56315402186e-01  3.60797298205e-01  3.65335569537e-01
  3.69930925294e-01  3.74584083511e-01  3.79295771254e-01  3.84066724732e-01
  3.88897689417e-01  3.93789420158e-01  3.98742681297e-01  4.03758246791e-01
  4.08836900332e-01  4.13979435471e-01  4.19186655739e-01  4.24459374774e-01
  4.29798416451e-01  4.35204615004e-01  4.40678815165e-01  4.46221872286e-01
  4.51834652483e-01  4.57518032764e-01  4.63272901168e-01  4.69100156905e-01
  4.75000710497e-01  4.80975483915e-01  4.87025410732e-01  4.93151436260e-01
  4.99354517703e-01  5.05635624306e-01  5.11995737503e-01  5.18435851076e-01
  5.24956971306e-01  5.31560117131e-01  5.38246320305e-01  5.45016625562e-01
  5.51872090775e-01  5.58813787126e-01  5.65842799267e-01  5.72960225497e-01
  5.80167177929e-01  5.87464782662e-01  5.94854179962e-01  6.02336524438e-01
  6.09912985222e-01  6.17584746151e-01  6.25353005953e-01  6.33218978434e-01
  6.41183892669e-01  6.49248993191e-01  6.57415540190e-01  6.65684809704e-01
  6.74058093824e-01  6.82536700893e-01  6.91121955710e-01  6.99815199739e-01
  7.08617791316e-01  7.17531105865e-01  7.26556536109e-01  7.35695492290e-01
  7.44949402388e-01  7.54319712346e-01  7.63807886294e-01  7.73415406778e-01
  7.83143774993e-01  7.92994511016e-01  8.02969154045e-01  8.13069262638e-01
  8.23296414957e-01  8.33652209016e-01  8.44138262929e-01  8.54756215163e-01
  8.65507724795e-01  8.76394471769e-01  8.87418157163e-01  8.98580503449e-01
  9.09883254767e-01  9.21328177194e-01  9.32917059024e-01  9.44651711043e-01
  9.56533966813e-01  9.68565682961e-01  9.80748739468e-01  9.93085039961e-01
  1.00557651201e+00  1.01822510744e+00  1.03103280261e+00  1.04400159875e+00
  1.05713352227e+00  1.07043062505e+00  1.08389498480e+00  1.09752870534e+00
  1.11133391698e+00  1.12531277680e+00  1.13946746903e+00  1.15380020537e+00
  1.16831322534e+00  1.18300879663e+00  1.19788921545e+00  1.21295680690e+00
  1.22821392531e+00  1.24366295465e+00  1.25930630886e+00  1.27514643224e+00
  1.29118579985e+00  1.30742691786e+00  1.32387232399e+00  1.34052458786e+00
  1.35738631143e+00  1.37446012937e+00  1.39174870950e+00  1.40925475320e+00
  1.42698099582e+00  1.44493020713e+00  1.46310519172e+00  1.48150878947e+00
  1.50014387599e+00  1.51901336304e+00  1.53812019901e+00  1.55746736940e+00
  1.57705789723e+00  1.59689484357e+00  1.61698130797e+00  1.63732042900e+00
  1.65791538467e+00  1.67876939300e+00  1.69988571245e+00  1.72126764251e+00
  1.74291852414e+00  1.76484174034e+00  1.78704071664e+00  1.80951892170e+00
  1.83227986777e+00  1.85532711129e+00  1.87866425346e+00  1.90229494073e+00
  1.92622286546e+00  1.95045176643e+00  1.97498542945e+00  1.99982768797e+00
  2.02498242363e+00  2.05045356692e+00  2.07624509775e+00  2.10236104610e+00
  2.12880549264e+00  2.15558256936e+00  2.18269646025e+00  2.21015140191e+00
  2.23795168421e+00  2.26610165102e+00  2.29460570083e+00  2.32346828744e+00
  2.35269392070e+00  2.38228716717e+00  2.41225265086e+00  2.44259505393e+00
  2.47331911745e+00  2.50442964211e+00  2.53593148901e+00  2.56782958035e+00
  2.60012890029e+00  2.63283449566e+00  2.66595147678e+00  2.69948501824e+00
  2.73344035973e+00  2.76782280683e+00  2.80263773188e+00  2.83789057478e+00
  2.87358684385e+00  2.90973211671e+00  2.94633204114e+00  2.98339233594e+00
  3.02091879187e+00  3.05891727250e+00  3.09739371518e+00  3.13635413192e+00
  3.17580461039e+00  3.21575131478e+00  3.25620048686e+00  3.29715844689e+00
  3.33863159464e+00  3.38062641036e+00  3.42314945584e+00  3.46620737539e+00
  3.50980689689e+00  3.55395483286e+00  3.59865808150e+00  3.64392362779e+00
  3.68975854456e+00  3.73616999361e+00  3.78316522682e+00  3.83075158730e+00
  3.87893651051e+00  3.92772752543e+00  3.97713225578e+00  4.02715842113e+00
  4.07781383817e+00  4.12910642193e+00  4.18104418696e+00  4.23363524866e+00
  4.28688782447e+00  4.34081023523e+00  4.39541090642e+00  4.45069836951e+00
  4.50668126327e+00  4.56336833515e+00  4.62076844262e+00  4.67889055455e+00
  4.73774375266e+00  4.79733723286e+00  4.85768030677e+00  4.91878240311e+00
  4.98065306921e+00  5.04330197248e+00  5.10673890194e+00  5.17097376975e+00
  5.23601661273e+00  5.30187759396e+00  5.36856700435e+00  5.43609526426e+00
  5.50447292511e+00  5.57371067106e+00  5.64381932063e+00  5.71480982846e+00
  5.78669328695e+00  5.85948092804e+00  5.93318412495e+00  6.00781439395e+00
  6.08338339617e+00  6.15990293942e+00  6.23738498004e+00  6.31584162475e+00
  6.39528513256e+00  6.47572791669e+00  6.55718254648e+00  6.63966174939e+00
  6.72317841295e+00  6.80774558682e+00  6.89337648478e+00  6.98008448685e+00
  7.06788314131e+00  7.15678616690e+00  7.24680745489e+00  7.33796107128e+00
  7.43026125903e+00  7.52372244021e+00  7.61835921833e+00  7.71418638057e+00
  7.81121890014e+00  7.90947193854e+00  8.00896084804e+00  8.10970117395e+00
  8.21170865718e+00  8.31499923659e+00  8.41958905155e+00  8.52549444442e+00
  8.63273196315e+00  8.74131836381e+00  8.85127061326e+00  8.96260589174e+00
  9.07534159562e+00  9.18949534010e+00  9.30508496192e+00  9.42212852219e+00
  9.54064430922e+00  9.66065084133e+00  9.78216686979e+00  9.90521138172e+00
  1.00298036031e+01  1.01559630017e+01  1.02837092901e+01  1.04130624291e+01
  1.05440426303e+01  1.06766703595e+01  1.08109663403e+01  1.09469515565e+01
  1.10846472561e+01  1.12240749545e+01  1.13652564374e+01  1.15082137647e+01
  1.16529692739e+01  1.17995455832e+01  1.19479655955e+01  1.20982525018e+01
  1.22504297846e+01  1.24045212220e+01  1.25605508911e+01  1.27185431718e+01
  1.28785227507e+01  1.30405146251e+01  1.32045441064e+01  1.33706368245e+01
  1.35388187319e+01  1.37091161072e+01  1.38815555598e+01  1.40561640338e+01
  1.42329688119e+01  1.44119975204e+01  1.45932781328e+01  1.47768389746e+01
  1.49627087276e+01  1.51509164342e+01  1.53414915024e+01  1.55344637098e+01
  1.57298632088e+01  1.59277205309e+01  1.61280665918e+01  1.63309326958e+01
  1.65363505414e+01  1.67443522253e+01  1.69549702483e+01  1.71682375200e+01
  1.73841873637e+01  1.76028535220e+01  1.78242701620e+01  1.80484718805e+01
  1.82754937094e+01  1.85053711214e+01  1.87381400353e+01  1.89738368217e+01
  1.92124983087e+01  1.94541617877e+01  1.96988650190e+01  1.99466462380e+01
  2.01975441611e+01  2.04515979916e+01  2.07088474258e+01  2.09693326597e+01
  2.12330943944e+01  2.15001738433e+01  2.17706127381e+01  2.20444533354e+01
  2.23217384234e+01  2.26025113285e+01  2.28868159219e+01  2.31746966269e+01
  2.34661984254e+01  2.37613668651e+01  2.40602480668e+01  2.43628887311e+01
  2.46693361464e+01  2.49796381957e+01  2.52938433642e+01  2.56120007473e+01
  2.59341600575e+01  2.62603716331e+01  2.65906864451e+01  2.69251561060e+01
  2.72638328773e+01  2.76067696779e+01  2.79540200925e+01  2.83056383796e+01
  2.86616794803e+01  2.90221990267e+01  2.93872533508e+01  2.97568994930e+01
  3.01311952112e+01  3.05101989901e+01  3.08939700496e+01  3.12825683547e+01
  3.16760546248e+01  3.20744903429e+01  3.24779377654e+01  3.28864599317e+01
  3.33001206743e+01  3.37189846285e+01  3.41431172427e+01  3.45725847884e+01
  3.50074543708e+01  3.54477939391e+01  3.58936722974e+01  3.63451591150e+01
  3.68023249377e+01  3.72652411985e+01  3.77339802291e+01  3.82086152708e+01
  3.86892204864e+01  3.91758709715e+01  3.96686427660e+01  4.01676128667e+01
  4.06728592387e+01  4.11844608276e+01  4.17024975724e+01  4.22270504172e+01
  4.27582013246e+01  4.32960332879e+01  4.38406303445e+01  4.43920775888e+01
  4.49504611856e+01  4.55158683833e+01  4.60883875281e+01  4.66681080772e+01
  4.72551206132e+01  4.78495168579e+01  4.84513896869e+01  4.90608331442e+01
  4.96779424564e+01  5.03028140482e+01  5.09355455571e+01  5.15762358486e+01
  5.22249850318e+01  5.28818944753e+01  5.35470668223e+01  5.42206060075e+01
  5.49026172726e+01  5.55932071835e+01  5.62924836460e+01  5.70005559237e+01
  5.77175346541e+01  5.84435318668e+01  5.91786610003e+01  5.99230369199e+01
  6.06767759360e+01  6.14399958217e+01  6.22128158318e+01  6.29953567210e+01
  6.37877407628e+01  6.45900917688e+01  6.54025351082e+01  6.62251977267e+01
  6.70582081670e+01  6.79016965889e+01  6.87557947889e+01  6.96206362218e+01
  7.04963560208e+01  7.13830910188e+01  7.22809797700e+01  7.31901625713e+01
  7.41107814845e+01  7.50429803580e+01  7.59869048499e+01  7.69427024503e+01
  7.79105225044e+01  7.88905162363e+01  7.98828367718e+01  8.08876391630e+01
  8.19050804125e+01  8.29353194974e+01  8.39785173947e+01  8.50348371062e+01
  8.61044436840e+01  8.71875042563e+01  8.82841880535e+01  8.93946664348e+01
  9.05191129145e+01  9.16577031898e+01  9.28106151677e+01  9.39780289931e+01
  9.51601270766e+01  9.63570941237e+01  9.75691171627e+01  9.87963855748e+01
  1.00039091123e+02
  </PP_R>
  <PP_RAB>
  5.99922345760e-07  6.07468439914e-07  6.15109452248e-07  6.22846576685e-07
  6.30681022167e-07  6.38614012842e-07  6.46646788256e-07  6.54780603546e-07
  6.63016729637e-07  6.71356453442e-07  6.79801078058e-07  6.88351922975e-07
  6.97010324281e-07  7.05777634869e-07  7.14655224647e-07  7.23644480759e-07
  7.32746807793e-07  7.41963628006e-07  7.51296381546e-07  7.60746526674e-07
  7.70315539994e-07  7.80004916685e-07  7.89816170731e-07  7.99750835161e-07
  8.09810462285e-07  8.19996623942e-07  8.30310911740e-07  8.40754937307e-07
  8.51330332543e-07  8.62038749876e-07  8.72881862518e-07  8.83861364726e-07
  8.94978972071e-07  9.06236421701e-07  9.17635472616e-07  9.29177905940e-07
  9.40865525203e-07  9.52700156618e-07  9.64683649370e-07  9.76817875906e-07
  9.89104732222e-07  1.00154613816e-06  1.01414403773e-06  1.02690039936e-06
  1.03981721627e-06  1.05289650674e-06  1.06614031443e-06  1.07955070871e-06
  1.09312978498e-06  1.10687966501e-06  1.12080249724e-06  1.13490045714e-06
  1.14917574754e-06  1.16363059899e-06  1.17826727009e-06  1.19308804785e-06
  1.20809524805e-06  1.22329121558e-06  1.23867832485e-06  1.25425898014e-06
  1.27003561594e-06  1.28601069739e-06  1.30218672063e-06  1.31856621319e-06
  1.33515173441e-06  1.35194587580e-06  1.36895126148e-06  1.38617054858e-06
  1.40360642766e-06  1.42126162309e-06  1.43913889354e-06  1.45724103237e-06
  1.47557086808e-06  1.49413126474e-06  1.51292512245e-06  1.53195537779e-06
  1.55122500427e-06  1.57073701281e-06  1.59049445221e-06  1.61050040961e-06
  1.63075801096e-06  1.65127042158e-06  1.67204084656e-06  1.69307253132e-06
  1.71436876211e-06  1.73593286651e-06  1.75776821395e-06  1.77987821625e-06
  1.80226632814e-06  1.82493604781e-06  1.84789091745e-06  1.87113452381e-06
  1.89467049874e-06  1.91850251980e-06  1.94263431077e-06  1.96706964231e-06
  1.99181233248e-06  2.01686624739e-06  2.04223530174e-06  2.06792345952e-06
  2.09393473455e-06  2.12027319113e-06  2.14694294472e-06  2.17394816251e-06
  2.20129306413e-06  2.22898192226e-06  2.25701906335e-06  2.28540886827e-06
  2.31415577297e-06  2.34326426922e-06  2.37273890527e-06  2.40258428661e-06
  2.43280507663e-06  2.46340599740e-06  2.49439183036e-06  2.52576741712e-06
  2.55753766018e-06  2.58970752370e-06  2.62228203429e-06  2.65526628179e-06
  2.68866542004e-06  2.72248466774e-06  2.75672930920e-06  2.79140469523e-06
  2.82651624392e-06  2.86206944152e-06  2.89806984330e-06  2.93452307438e-06
  2.97143483067e-06  3.00881087969e-06  3.04665706154e-06  3.08497928974e-06
  3.12378355224e-06  3.16307591228e-06  3.20286250936e-06  3.24314956023e-06
  3.28394335981e-06  3.32525028222e-06  3.36707678176e-06  3.40942939389e-06
  3.45231473630e-06  3.49573950992e-06  3.53971049994e-06  3.58423457693e-06
  3.62931869787e-06  3.67496990724e-06  3.72119533813e-06  3.76800221336e-06
  3.81539784661e-06  3.86338964353e-06  3.91198510294e-06  3.96119181799e-06
  4.01101747731e-06  4.06146986628e-06  4.11255686818e-06  4.16428646545e-06
  4.21666674096e-06  4.26970587922e-06  4.32341216772e-06  4.37779399816e-06
  4.43285986782e-06  4.48861838085e-06  4.54507824964e-06  4.60224829615e-06
  4.66013745332e-06  4.71875476645e-06  4.77810939462e-06  4.83821061209e-06
  4.89906780982e-06  4.96069049686e-06  5.02308830188e-06  5.08627097467e-06
  5.15024838765e-06  5.21503053741e-06  5.28062754631e-06  5.34704966401e-06
  5.41430726909e-06  5.48241087070e-06  5.55137111017e-06  5.62119876266e-06
  5.69190473890e-06  5.76350008683e-06  5.83599599337e-06  5.90940378617e-06
  5.98373493533e-06  6.05900105524e-06  6.13521390640e-06  6.21238539721e-06
  6.29052758588e-06  6.36965268229e-06  6.44977304988e-06  6.53090120764e-06
  6.61304983200e-06  6.69623175884e-06  6.78045998553e-06  6.86574767288e-06
  6.95210814727e-06  7.03955490271e-06  7.12810160292e-06  7.21776208351e-06
  7.30855035411e-06  7.40048060057e-06  7.49356718718e-06  7.58782465891e-06
  7.68326774368e-06  7.77991135467e-06  7.87777059263e-06  7.97686074828e-06
  8.07719730465e-06  8.17879593953e-06  8.28167252792e-06  8.38584314448e-06
  8.49132406611e-06  8.59813177439e-06  8.70628295825e-06  8.81579451654e-06
  8.92668356066e-06  9.03896741724e-06  9.15266363088e-06  9.26778996683e-06
  9.38436441382e-06  9.50240518683e-06  9.62193073000e-06  9.74295971941e-06
  9.86551106610e-06  9.98960391897e-06  1.01152576678e-05  1.02424919462e-05
  1.03713266348e-05  1.05017818643e-05  1.06338780185e-05  1.07676357379e-05
  1.09030759222e-05  1.10402197343e-05  1.11790886033e-05  1.13197042275e-05
  1.14620885786e-05  1.16062639044e-05  1.17522527324e-05  1.19000778739e-05
  1.20497624268e-05  1.22013297796e-05  1.23548036149e-05  1.25102079135e-05
  1.26675669575e-05  1.28269053346e-05  1.29882479418e-05  1.31516199891e-05
  1.33170470038e-05  1.34845548342e-05  1.36541696537e-05  1.38259179651e-05
  1.39998266042e-05  1.41759227447e-05  1.43542339020e-05  1.45347879375e-05
  1.47176130633e-05  1.49027378460e-05  1.50901912118e-05  1.52800024507e-05
  1.54722012211e-05  1.56668175543e-05  1.58638818597e-05  1.60634249290e-05
  1.62654779410e-05  1.64700724671e-05  1.66772404755e-05  1.68870143366e-05
  1.70994268281e-05  1.73145111399e-05  1.75323008792e-05  1.77528300762e-05
  1.79761331890e-05  1.82022451092e-05  1.84312011673e-05  1.86630371380e-05
  1.88977892462e-05  1.91354941725e-05  1.93761890586e-05  1.96199115137e-05
  1.98666996199e-05  2.01165919384e-05  2.03696275152e-05  2.06258458878e-05
  2.08852870908e-05  2.11479916624e-05  2.14140006507e-05  2.16833556202e-05
  2.19560986581e-05  2.22322723811e-05  2.25119199419e-05  2.27950850360e-05
  2.30818119085e-05  2.33721453610e-05  2.36661307588e-05  2.39638140377e-05
  2.42652417113e-05  2.45704608783e-05  2.48795192298e-05  2.51924650568e-05
  2.55093472577e-05  2.58302153460e-05  2.61551194580e-05  2.64841103607e-05
  2.68172394595e-05  2.71545588064e-05  2.74961211085e-05  2.78419797354e-05
  2.81921887283e-05  2.85468028081e-05  2.89058773838e-05  2.92694685617e-05