<PP_INFO>
Generated using Fritz-Haber code                                                
Author: unknown    Generation date: as well                                     
oxygen, fhi98PP : Trouiller-Martins-type, GGA Perdew/Burke/Ernzerhof (1996), l= 
    1        The Pseudo was generated with a Scalar-Relativistic Calculation
nl pn  l   occ               Rcut            Rcut US             E pseu
2s  0  0  2.00      0.00000000000      0.00000000000      0.00000000000
2p  0  1  4.00      0.00000000000      0.00000000000      0.00000000000
3d  0  2  0.00      0.00000000000      0.00000000000      0.00000000000
4f  0  3  0.00      0.00000000000      0.00000000000      0.00000000000
</PP_INFO>


<PP_HEADER>
   0                   Version Number
   O                   Element
   NC                  Norm - Conserving pseudopotential
    F                  Nonlinear Core Correction
 SLA  PW   PBE  PBE    PBE  Exchange-Correlation functional
    6.00000000000      Z valence
    0.00000000000      Total energy
  0.0000000  0.0000000 Suggested cutoff for wfc and rho
    3                  Max angular momentum component
  473                  Number of points in mesh
    4    3             Number of Wavefunctions, Number of Projectors
 Wavefunctions         nl  l   occ
                       2s  0  2.00
                       2p  1  4.00
                       3d  2  0.00
                       4f  3  0.00
</PP_HEADER>


<PP_MESH>
  <PP_R>
  7.81250000000E-04  8.00546875000E-04  8.20320382813E-04  8.40582296268E-04
  8.61344678986E-04  8.82619892557E-04  9.04420603903E-04  9.26759792819E-04
  9.49650759702E-04  9.73107133467E-04  9.97142879663E-04  1.02177230879E-03
  1.04701008482E-03  1.07287123391E-03  1.09937115339E-03  1.12652562088E-03
  1.15435080372E-03  1.18286326857E-03  1.21207999130E-03  1.24201836709E-03
  1.27269622075E-03  1.30413181741E-03  1.33634387330E-03  1.36935156697E-03
  1.40317455067E-03  1.43783296207E-03  1.47334743623E-03  1.50973911791E-03
  1.54702967412E-03  1.58524130707E-03  1.62439676736E-03  1.66451936751E-03
  1.70563299589E-03  1.74776213089E-03  1.79093185552E-03  1.83516787235E-03
  1.88049651880E-03  1.92694478281E-03  1.97454031895E-03  2.02331146483E-03
  2.07328725801E-03  2.12449745328E-03  2.17697254038E-03  2.23074376212E-03
  2.28584313305E-03  2.34230345843E-03  2.40015835386E-03  2.45944226520E-03
  2.52019048915E-03  2.58243919423E-03  2.64622544233E-03  2.71158721075E-03
  2.77856341486E-03  2.84719393121E-03  2.91751962131E-03  2.98958235595E-03
  3.06342504014E-03  3.13909163864E-03  3.21662720211E-03  3.29607789400E-03
  3.37749101798E-03  3.46091504613E-03  3.54639964777E-03  3.63399571907E-03
  3.72375541333E-03  3.81573217204E-03  3.90998075669E-03  4.00655728138E-03
  4.10551924623E-03  4.20692557161E-03  4.31083663323E-03  4.41731429807E-03
  4.52642196123E-03  4.63822458367E-03  4.75278873089E-03  4.87018261254E-03
  4.99047612307E-03  5.11374088331E-03  5.24005028313E-03  5.36947952512E-03
  5.50210566939E-03  5.63800767943E-03  5.77726646911E-03  5.91996495090E-03
  6.06618808518E-03  6.21602293089E-03  6.36955869728E-03  6.52688679710E-03
  6.68810090099E-03  6.85329699325E-03  7.02257342898E-03  7.19603099268E-03
  7.37377295820E-03  7.55590515026E-03  7.74253600747E-03  7.93377664686E-03
  8.12974093004E-03  8.33054553101E-03  8.53631000562E-03  8.74715686276E-03
  8.96321163727E-03  9.18460296471E-03  9.41146265794E-03  9.64392578559E-03
  9.88213075250E-03  1.01262193821E-02  1.03763370008E-02  1.06326325247E-02
  1.08952585481E-02  1.11643714342E-02  1.14401314087E-02  1.17227026545E-02
  1.20122534100E-02  1.23089560693E-02  1.26129872842E-02  1.29245280701E-02
  1.32437639134E-02  1.35708848821E-02  1.39060857387E-02  1.42495660564E-02
  1.46015303380E-02  1.49621881374E-02  1.53317541843E-02  1.57104485127E-02
  1.60984965910E-02  1.64961294568E-02  1.69035838543E-02  1.73211023755E-02
  1.77489336042E-02  1.81873322642E-02  1.86365593712E-02  1.90968823876E-02
  1.95685753826E-02  2.00519191946E-02  2.05472015987E-02  2.10547174782E-02
  2.15747689999E-02  2.21076657942E-02  2.26537251393E-02  2.32132721502E-02
  2.37866399723E-02  2.43741699796E-02  2.49762119781E-02  2.55931244140E-02
  2.62252745870E-02  2.68730388693E-02  2.75368029294E-02  2.82169619618E-02
  2.89139209222E-02  2.96280947690E-02  3.03599087098E-02  3.11097984549E-02
  3.18782104767E-02  3.26656022755E-02  3.34724426517E-02  3.42992119852E-02
  3.51464025213E-02  3.60145186635E-02  3.69040772745E-02  3.78156079832E-02
  3.87496535004E-02  3.97067699419E-02  4.06875271594E-02  4.16925090803E-02
  4.27223140545E-02  4.37775552117E-02  4.48588608254E-02  4.59668746878E-02
  4.71022564926E-02  4.82656822280E-02  4.94578445790E-02  5.06794533401E-02
  5.19312358376E-02  5.32139373628E-02  5.45283216156E-02  5.58751711595E-02
  5.72552878872E-02  5.86694934980E-02  6.01186299874E-02  6.16035601481E-02
  6.31251680837E-02  6.46843597354E-02  6.62820634209E-02  6.79192303874E-02
  6.95968353779E-02  7.13158772118E-02  7.30773793789E-02  7.48823906496E-02
  7.67319856986E-02  7.86272657454E-02  8.05693592093E-02  8.25594223817E-02
  8.45986401146E-02  8.66882265254E-02  8.88294257206E-02  9.10235125359E-02
  9.32717932955E-02  9.55756065899E-02  9.79363240727E-02  1.00355351277E-01
  1.02834128454E-01  1.05374131427E-01  1.07976872473E-01  1.10643901223E-01
  1.13376805583E-01  1.16177212681E-01  1.19046789834E-01  1.21987245543E-01
  1.25000330508E-01  1.28087838672E-01  1.31251608287E-01  1.34493523012E-01
  1.37815513030E-01  1.41219556202E-01  1.44707679240E-01  1.48281958917E-01
  1.51944523302E-01  1.55697553028E-01  1.59543282588E-01  1.63484001668E-01
  1.67522056509E-01  1.71659851305E-01  1.75899849632E-01  1.80244575918E-01
  1.84696616943E-01  1.89258623381E-01  1.93933311379E-01  1.98723464170E-01
  2.03631933735E-01  2.08661642498E-01  2.13815585068E-01  2.19096830019E-01
  2.24508521721E-01  2.30053882207E-01  2.35736213098E-01  2.41558897561E-01
  2.47525402331E-01  2.53639279769E-01  2.59904169979E-01  2.66323802977E-01
  2.72902000911E-01  2.79642680333E-01  2.86549854538E-01  2.93627635945E-01
  3.00880238552E-01  3.08311980445E-01  3.15927286362E-01  3.23730690335E-01
  3.31726838386E-01  3.39920491294E-01  3.48316527429E-01  3.56919945657E-01
  3.65735868314E-01  3.74769544262E-01  3.84026352005E-01  3.93511802900E-01
  4.03231544431E-01  4.13191363579E-01  4.23397190259E-01  4.33855100858E-01
  4.44571321850E-01  4.55552233499E-01  4.66804373667E-01  4.78334441696E-01
  4.90149302406E-01  5.02255990176E-01  5.14661713133E-01  5.27373857447E-01
  5.40399991726E-01  5.53747871522E-01  5.67425443949E-01  5.81440852414E-01
  5.95802441469E-01  6.10518761773E-01  6.25598575189E-01  6.41050859996E-01
  6.56884816238E-01  6.73109871199E-01  6.89735685018E-01  7.06772156438E-01
  7.24229428702E-01  7.42117895590E-01  7.60448207612E-01  7.79231278340E-01
  7.98478290915E-01  8.18200704700E-01  8.38410262106E-01  8.59118995580E-01
  8.80339234771E-01  9.02083613870E-01  9.24365079133E-01  9.47196896587E-01
  9.70592659933E-01  9.94566298633E-01  1.01913208621E+00  1.04430464874E+00
  1.07009897356E+00  1.09653041821E+00  1.12361471954E+00  1.15136800311E+00
  1.17980679279E+00  1.20894802057E+00  1.23880903668E+00  1.26940761988E+00
  1.30076198810E+00  1.33289080920E+00  1.36581321219E+00  1.39954879853E+00
  1.43411765385E+00  1.46954035990E+00  1.50583800679E+00  1.54303220556E+00
  1.58114510104E+00  1.62019938503E+00  1.66021830985E+00  1.70122570210E+00
  1.74324597694E+00  1.78630415257E+00  1.83042586514E+00  1.87563738401E+00
  1.92196562739E+00  1.96943817839E+00  2.01808330140E+00  2.06792995894E+00
  2.11900782893E+00  2.17134732230E+00  2.22497960116E+00  2.27993659731E+00
  2.33625103126E+00  2.39395643174E+00  2.45308715560E+00  2.51367840834E+00
  2.57576626503E+00  2.63938769178E+00  2.70458056776E+00  2.77138370779E+00
  2.83983688537E+00  2.90998085644E+00  2.98185738359E+00  3.05550926097E+00
  3.13098033971E+00  3.20831555410E+00  3.28756094829E+00  3.36876370371E+00
  3.45197216719E+00  3.53723587972E+00  3.62460560595E+00  3.71413336442E+00
  3.80587245852E+00  3.89987750825E+00  3.99620448270E+00  4.09491073342E+00
  4.19605502854E+00  4.29969758774E+00  4.40590011816E+00  4.51472585108E+00
  4.62623957960E+00  4.74050769722E+00  4.85759823734E+00  4.97758091380E+00
  5.10052716237E+00  5.22651018328E+00  5.35560498481E+00  5.48788842793E+00
  5.62343927210E+00  5.76233822212E+00  5.90466797621E+00  6.05051327522E+00
  6.19996095312E+00  6.35309998866E+00  6.51002155838E+00  6.67081909087E+00
  6.83558832242E+00  7.00442735398E+00  7.17743670963E+00  7.35471939635E+00
  7.53638096544E+00  7.72252957529E+00  7.91327605580E+00  8.10873397438E+00
  8.30901970354E+00  8.51425249022E+00  8.72455452673E+00  8.94005102354E+00
  9.16087028382E+00  9.38714377983E+00  9.61900623119E+00  9.85659568510E+00
  1.01000535985E+01  1.03495249224E+01  1.06051581880E+01  1.08671055952E+01
  1.11355231034E+01  1.14105705241E+01  1.16924116160E+01  1.19812141830E+01
  1.22771501733E+01  1.25803957826E+01  1.28911315584E+01  1.32095425079E+01
  1.35358182078E+01  1.38701529176E+01  1.42127456946E+01  1.45638005133E+01
  1.49235263860E+01  1.52921374877E+01  1.56698532836E+01  1.60568986597E+01
  1.64535040566E+01  1.68599056068E+01  1.72763452753E+01  1.77030710036E+01
  1.81403368574E+01  1.85884031778E+01  1.90475367363E+01  1.95180108937E+01
  2.00001057627E+01  2.04941083751E+01  2.10003128519E+01  2.15190205794E+01
  2.20505403877E+01  2.25951887353E+01  2.31532898970E+01  2.37251761575E+01
  2.43111880086E+01  2.49116743524E+01  2.55269927089E+01  2.61575094288E+01
  2.68035999117E+01  2.74656488295E+01  2.81440503556E+01  2.88392083994E+01
  2.95515368469E+01  3.02814598070E+01  3.10294118642E+01  3.17958383373E+01
  3.25811955442E+01  3.33859510741E+01  3.42105840657E+01  3.50555854921E+01
  3.59214584537E+01  3.68087184775E+01  3.77178938239E+01  3.86495258014E+01
  3.96041690887E+01  4.05823920652E+01  4.15847771492E+01  4.26119211448E+01
  4.36644355970E+01  4.47429471563E+01  4.58480979510E+01  4.69805459704E+01
  4.81409654559E+01  4.93300473027E+01  5.05484994710E+01  5.17970474080E+01
  5.30764344790E+01  5.43874224106E+01  5.57307917441E+01  5.71073423002E+01
  5.85178936550E+01  5.99632856283E+01  6.14443787833E+01  6.29620549393E+01
  6.45172176963E+01  6.61107929734E+01  6.77437295598E+01  6.94169996799E+01
  7.11315995720E+01  7.28885500815E+01  7.46888972685E+01  7.65337130310E+01
  7.84240957429E+01
  </PP_R>
  <PP_RAB>
  1.90624115809E-05  1.95332531469E-05  2.00157244997E-05  2.05101128948E-05
  2.10167126833E-05  2.15358254866E-05  2.20677603761E-05  2.26128340574E-05
  2.31713710586E-05  2.37437039238E-05  2.43301734107E-05  2.49311286939E-05
  2.55469275727E-05  2.61779366837E-05  2.68245317198E-05  2.74870976533E-05
  2.81660289653E-05  2.88617298807E-05  2.95746146088E-05  3.03051075896E-05
  3.10536437471E-05  3.18206687477E-05  3.26066392657E-05  3.34120232556E-05
  3.42373002300E-05  3.50829615457E-05  3.59495106959E-05  3.68374636100E-05
  3.77473489612E-05  3.86797084806E-05  3.96350972800E-05  4.06140841828E-05
  4.16172520622E-05  4.26451981881E-05  4.36985345833E-05  4.47778883876E-05
  4.58839022307E-05  4.70172346158E-05  4.81785603108E-05  4.93685707505E-05
  5.05879744481E-05  5.18374974169E-05  5.31178836031E-05  5.44298953281E-05
  5.57743137427E-05  5.71519392922E-05  5.85635921927E-05  6.00101129198E-05
  6.14923627090E-05  6.30112240679E-05  6.45676013023E-05  6.61624210545E-05
  6.77966328546E-05  6.94712096861E-05  7.11871485653E-05  7.29454711349E-05
  7.47472242719E-05  7.65934807114E-05  7.84853396850E-05  8.04239275752E-05
  8.24103985863E-05  8.44459354314E-05  8.65317500366E-05  8.86690842625E-05
  9.08592106437E-05  9.31034331466E-05  9.54030879454E-05  9.77595442176E-05
  1.00174204960E-04  1.02648507822E-04  1.05183925966E-04  1.07781968937E-04
  1.10444183570E-04  1.13172154904E-04  1.15967507130E-04  1.18831904556E-04
  1.21767052599E-04  1.24774698798E-04  1.27856633858E-04  1.31014692714E-04
  1.34250755624E-04  1.37566749288E-04  1.40964647996E-04  1.44446474801E-04
  1.48014302729E-04  1.51670256006E-04  1.55416511330E-04  1.59255299159E-04
  1.63188905049E-04  1.67219671003E-04  1.71349996877E-04  1.75582341800E-04
  1.79919225642E-04  1.84363230516E-04  1.88917002310E-04  1.93583252267E-04
  1.98364758598E-04  2.03264368135E-04  2.08284998028E-04  2.13429637479E-04
  2.18701349525E-04  2.24103272858E-04  2.29638623698E-04  2.35310697703E-04
  2.41122871936E-04  2.47078606873E-04  2.53181448463E-04  2.59435030240E-04
  2.65843075487E-04  2.72409399451E-04  2.79137911618E-04  2.86032618035E-04
  2.93097623700E-04  3.00337135006E-04  3.07755462240E-04  3.15357022158E-04
  3.23146340605E-04  3.31128055218E-04  3.39306918182E-04  3.47687799061E-04
  3.56275687698E-04  3.65075697184E-04  3.74093066904E-04  3.83333165657E-04
  3.92801494848E-04  4.02503691771E-04  4.12445532958E-04  4.22632937622E-04
  4.33071971181E-04  4.43768848870E-04  4.54729939437E-04  4.65961768941E-04
  4.77471024633E-04  4.89264558942E-04  5.01349393548E-04  5.13732723568E-04
  5.26421921841E-04  5.39424543310E-04  5.52748329530E-04  5.66401213269E-04
  5.80391323237E-04  5.94726988921E-04  6.09416745547E-04  6.24469339162E-04
  6.39893731840E-04  6.55699107016E-04  6.71894874959E-04  6.88490678371E-04
  7.05496398127E-04  7.22922159160E-04  7.40778336492E-04  7.59075561403E-04
  7.77824727770E-04  7.97036998545E-04  8.16723812410E-04  8.36896890576E-04
  8.57568243773E-04  8.78750179394E-04  9.00455308826E-04  9.22696554953E-04
  9.45487159861E-04  9.68840692709E-04  9.92771057819E-04  1.01729250295E-03
  1.04241962777E-03  1.06816739258E-03  1.09455112717E-03  1.12158654001E-03
  1.14928972755E-03  1.17767718382E-03  1.20676581026E-03  1.23657292578E-03
  1.26711627704E-03  1.29841404909E-03  1.33048487610E-03  1.36334785254E-03
  1.39702254450E-03  1.43152900135E-03  1.46688776768E-03  1.50311989554E-03
  1.54024695696E-03  1.57829105680E-03  1.61727484590E-03  1.65722153459E-03
  1.69815490650E-03  1.74009933269E-03  1.78307978621E-03  1.82712185693E-03
  1.87225176679E-03  1.91849638543E-03  1.96588324615E-03  2.01444056233E-03
  2.06419724422E-03  2.11518291615E-03  2.16742793418E-03  2.22096340416E-03
  2.27582120024E-03  2.33203398388E-03  2.38963522329E-03  2.44865921330E-03
  2.50914109587E-03  2.57111688094E-03  2.63462346790E-03  2.69969866755E-03
  2.76638122464E-03  2.83471084089E-03  2.90472819866E-03  2.97647498517E-03
  3.04999391730E-03  3.12532876706E-03  3.20252438761E-03  3.28162673998E-03
  3.36268292046E-03  3.44574118859E-03  3.53085099595E-03  3.61806301555E-03
  3.70742917204E-03  3.79900267258E-03  3.89283803860E-03  3.98899113815E-03
  4.08751921926E-03  4.18848094398E-03  4.29193642330E-03  4.39794725295E-03
  4.50657655010E-03  4.61788899089E-03  4.73195084896E-03  4.84883003493E-03
  4.96859613679E-03  5.09132046137E-03  5.21707607677E-03  5.34593785586E-03
  5.47798252090E-03  5.61328868917E-03  5.75193691979E-03  5.89400976171E-03
  6.03959180283E-03  6.18876972036E-03  6.34163233245E-03  6.49827065106E-03
  6.65877793614E-03  6.82324975116E-03  6.99178402002E-03  7.16448108531E-03
  7.34144376812E-03  7.52277742919E-03  7.70859003169E-03  7.89899220548E-03
  8.09409731295E-03  8.29402151658E-03  8.49888384804E-03  8.70880627909E-03
  8.92391379418E-03  9.14433446490E-03  9.37019952618E-03  9.60164345448E-03
  9.83880404780E-03  1.00818225078E-02  1.03308435237E-02  1.05860153588E-02
  1.08474899381E-02  1.11154229396E-02  1.13899738862E-02  1.16713062412E-02
  1.19595875053E-02  1.22549893167E-02  1.25576875529E-02  1.28678624354E-02
  1.31856986376E-02  1.35113853939E-02  1.38451166131E-02  1.41870909935E-02
  1.45375121410E-02  1.48965886909E-02  1.52645344316E-02  1.56415684320E-02
  1.60279151723E-02  1.64238046771E-02  1.68294726526E-02  1.72451606271E-02
  1.76711160946E-02  1.81075926621E-02  1.85548502009E-02  1.90131550008E-02
  1.94827799294E-02  1.99640045936E-02  2.04571155071E-02  2.09624062601E-02
  2.14801776947E-02  2.20107380838E-02  2.25544033145E-02  2.31114970763E-02
  2.36823510541E-02  2.42673051252E-02  2.48667075617E-02  2.54809152385E-02
  2.61102938449E-02  2.67552181029E-02  2.74160719900E-02  2.80932489682E-02
  2.87871522177E-02  2.94981948775E-02  3.02268002909E-02  3.09734022581E-02
  3.17384452939E-02  3.25223848927E-02  3.33256877995E-02  3.41488322882E-02
  3.49923084457E-02  3.58566184643E-02  3.67422769403E-02  3.76498111808E-02
  3.85797615169E-02  3.95326816264E-02  4.05091388626E-02  4.15097145925E-02
  4.25350045429E-02  4.35856191551E-02  4.46621839483E-02  4.57653398918E-02
  4.68957437871E-02  4.80540686587E-02  4.92410041545E-02  5.04572569571E-02
  5.17035512040E-02  5.29806289187E-02  5.42892504530E-02  5.56301949392E-02
  5.70042607542E-02  5.84122659948E-02  5.98550489649E-02  6.13334686743E-02
  6.28484053506E-02  6.44007609627E-02  6.59914597585E-02  6.76214488146E-02
  6.92916986003E-02  7.10032035557E-02  7.27569826835E-02  7.45540801558E-02
  7.63955659357E-02  7.82825364143E-02  8.02161150637E-02  8.21974531058E-02
  8.42277301975E-02  8.63081551334E-02  8.84399665652E-02  9.06244337393E-02
  9.28628572527E-02  9.51565698268E-02  9.75069371016E-02  9.99153584480E-02
  1.02383267802E-01  1.04912134516E-01  1.07503464239E-01  1.10158799806E-01
  1.12879722161E-01  1.15667851298E-01  1.18524847225E-01  1.21452410952E-01
  1.24452285502E-01  1.27526256954E-01  1.30676155501E-01  1.33903856542E-01
  1.37211281798E-01  1.40600400459E-01  1.44073230350E-01  1.47631839140E-01
  1.51278345566E-01  1.55014920702E-01  1.58843789243E-01  1.62767230838E-01
  1.66787581439E-01  1.70907234701E-01  1.75128643398E-01  1.79454320890E-01
  1.83886842616E-01  1.88428847628E-01  1.93083040165E-01  1.97852191257E-01
  2.02739140381E-01  2.07746797148E-01  2.12878143038E-01  2.18136233171E-01
  2.23524198130E-01  2.29045245824E-01  2.34702663396E-01  2.40499819182E-01
  2.46440164716E-01  2.52527236784E-01  2.58764659533E-01  2.65156146623E-01
  2.71705503445E-01  2.78416629380E-01  2.85293520126E-01  2.92340270073E-01
  2.99561074743E-01  3.06960233290E-01  3.14542151052E-01  3.22311342183E-01
  3.30272432335E-01  3.38430161413E-01  3.46789386400E-01  3.55355084244E-01
  3.64132354825E-01  3.73126423989E-01  3.82342646662E-01  3.91786510035E-01
  4.01463636832E-01  4.11379788662E-01  4.21540869442E-01  4.31952928917E-01
  4.42622166262E-01  4.53554933768E-01  4.64757740632E-01  4.76237256826E-01
  4.88000317070E-01  5.00053924901E-01  5.12405256846E-01  5.25061666690E-01
  5.38030689858E-01  5.51320047897E-01  5.64937653080E-01  5.78891613111E-01
  5.93190235955E-01  6.07842034783E-01  6.22855733042E-01  6.38240269648E-01
  6.54004804309E-01  6.70158722975E-01  6.86711643433E-01  7.03673421025E-01
  7.21054154525E-01  7.38864192142E-01  7.57114137687E-01  7.75814856888E-01
  7.94977483853E-01  8.14613427705E-01  8.34734379369E-01  8.55352318539E-01
  8.76479520807E-01  8.98128564971E-01  9.20312340526E-01  9.43044055337E-01
  9.66337243504E-01  9.90205773418E-01  1.01466385602E+00  1.03972605327E+00
  1.06540728678E+00  1.09172284676E+00  1.11868840108E+00  1.14632000459E+00
  1.17463410870E+00  1.20364757118E+00  1.23337766619E+00  1.26384209455E+00
  1.29505899428E+00  1.32704695144E+00  1.35982501114E+00  1.39341268892E+00
  1.42782998233E+00  1.46309738290E+00  1.49923588826E+00  1.53626701470E+00
  1.57421280996E+00  1.61309586636E+00  1.65293933426E+00  1.69376693582E+00
  1.73560297913E+00  1.77847237272E+00  1.82240064033E+00  1.86741393614E+00
  1.91353906036E+00
  </PP_RAB>
</PP_MESH>


<PP_LOCAL>
 -2.31302546937E+01 -2.31302837106E+01 -2.31303141067E+01 -2.31303459527E+01
 -2.31303793225E+01 -2.31304142938E+01 -2.31304509484E+01 -2.31304893717E+01
 -2.31305296535E+01 -2.31305718882E+01 -2.31306161746E+01 -2.31306626165E+01
 -2.31307113229E+01 -2.31307624081E+01 -2.31308159922E+01 -2.31308722010E+01
 -2.31309311667E+01 -2.31309930280E+01 -2.31310579306E+01 -2.31311260273E+01
 -2.31311974783E+01 -2.31312724520E+01 -2.31313511251E+01 -2.31314336829E+01
 -2.31315203201E+01 -2.31316112407E+01 -2.31317066592E+01 -2.31318068003E+01
 -2.31319119002E+01 -2.31320222065E+01 -2.31321379792E+01 -2.31322594911E+01
 -2.31323870284E+01 -2.31325208915E+01 -2.31326613957E+01 -2.31328088716E+01
 -2.31329636664E+01 -2.31331261442E+01 -2.31332966870E+01 -2.31334756959E+01
 -2.31336635913E+01 -2.31338608145E+01 -2.31340678284E+01 -2.31342851187E+01
 -2.31345131946E+01 -2.31347525907E+01 -2.31350038673E+01 -2.31352676123E+01
 -2.31355444422E+01 -2.31358350036E+01 -2.31361399745E+01 -2.31364600659E+01
 -2.31367960234E+01 -2.31371486285E+01 -2.31375187008E+01 -2.31379070992E+01
 -2.31383147243E+01 -2.31387425200E+01 -2.31391914752E+01 -2.31396626267E+01
 -2.31401570607E+01 -2.31406759151E+01 -2.31412203822E+01 -2.31417917109E+01
 -2.31423912091E+01 -2.31430202466E+01 -2.31436802578E+01 -2.31443727444E+01
 -2.31450992781E+01 -2.31458615043E+01 -2.31466611446E+01 -2.31475000003E+01
 -2.31483799558E+01 -2.31493029819E+01 -2.31502711394E+01 -2.31512865827E+01
 -2.31523515639E+01 -2.31534684360E+01 -2.31546396575E+01 -2.31558677959E+01
 -2.31571555323E+01 -2.31585056651E+01 -2.31599211146E+01 -2.31614049273E+01
 -2.31629602801E+01 -2.31645904845E+01 -2.31662989916E+01 -2.31680893960E+01
 -2.31699654404E+01 -2.31719310197E+01 -2.31739901857E+01 -2.31761471510E+01
 -2.31784062929E+01 -2.31807721577E+01 -2.31832494641E+01 -2.31858431065E+01
 -2.31885581586E+01 -2.31913998759E+01 -2.31943736981E+01 -2.31974852510E+01
 -2.32007403480E+01 -2.32041449909E+01 -2.32077053699E+01 -2.32114278628E+01
 -2.32153190337E+01 -2.32193856301E+01 -2.32236345795E+01 -2.32280729845E+01
 -2.32327081165E+01 -2.32375474078E+01 -2.32425984430E+01 -2.32478689470E+01
 -2.32533667728E+01 -2.32590998861E+01 -2.32650763476E+01 -2.32713042940E+01
 -2.32777919148E+01 -2.32845474276E+01 -2.32915790496E+01 -2.32988949664E+01
 -2.33065032970E+01 -2.33144120556E+01 -2.33226291096E+01 -2.33311621332E+01
 -2.33400185581E+01 -2.33492055185E+01 -2.33587297932E+01 -2.33685977421E+01
 -2.33788152396E+01 -2.33893876018E+01 -2.34003195112E+01 -2.34116149354E+01
 -2.34232770427E+01 -2.34353081130E+01 -2.34477094455E+01 -2.34604812625E+01
 -2.34736226105E+01 -2.34871312593E+01 -2.35010035982E+01 -2.35152345324E+01
 -2.35298173784E+01 -2.35447437603E+01 -2.35600035081E+01 -2.35755845582E+01
 -2.35914728594E+01 -2.36076522830E+01 -2.36241045412E+01 -2.36408091130E+01
 -2.36577431808E+01 -2.36748815790E+01 -2.36921967552E+01 -2.37096587473E+01
 -2.37272351770E+01 -2.37448912614E+01 -2.37625898448E+01 -2.37802914505E+01
 -2.37979543566E+01 -2.38155346930E+01 -2.38329865635E+01 -2.38502621921E+01
 -2.38673120934E+01 -2.38840852670E+01 -2.39005294165E+01 -2.39165911902E+01
 -2.39322164436E+01 -2.39473505216E+01 -2.39619385579E+01 -2.39759257897E+01
 -2.39892578843E+01 -2.40018812746E+01 -2.40137435005E+01 -2.40247935515E+01
 -2.40349822076E+01 -2.40442623741E+01 -2.40525894055E+01 -2.40599214158E+01
 -2.40662195700E+01 -2.40714483530E+01 -2.40755758126E+01 -2.40785737726E+01
 -2.40804180130E+01 -2.40810884142E+01 -2.40805690627E+01 -2.40788483161E+01
 -2.40759188263E+01 -2.40717775188E+01 -2.40664255277E+01 -2.40598680879E+01
 -2.40521143813E+01 -2.40431773429E+01 -2.40330734233E+01 -2.40218223145E+01
 -2.40094466377E+01 -2.39959715999E+01 -2.39814246207E+01 -2.39658349347E+01
 -2.39492331753E+01 -2.39316509438E+01 -2.39131203701E+01 -2.38936736721E+01
 -2.38733427187E+01 -2.38521586036E+01 -2.38301512369E+01 -2.38073489595E+01
 -2.37837781881E+01 -2.37594630957E+01 -2.37344253337E+01 -2.37086837992E+01
 -2.36822544544E+01 -2.36551501982E+01 -2.36273807949E+01 -2.35989528623E+01
 -2.35698699165E+01 -2.35401324780E+01 -2.35097382335E+01 -2.34786822538E+01
 -2.34469572633E+01 -2.34145539568E+01 -2.33814613590E+01 -2.33476672187E+01
 -2.33131584325E+01 -2.32779214876E+01 -2.32419429172E+01 -2.32052097570E+01
 -2.31677099937E+01 -2.31294329945E+01 -2.30903699081E+01 -2.30505140249E+01
 -2.30098610873E+01 -2.29684095380E+01 -2.29261606989E+01 -2.28831188681E+01
 -2.28392913273E+01 -2.27946882486E+01 -2.27493224913E+01 -2.27032092743E+01
 -2.26563657106E+01 -2.26088101816E+01 -2.25605615245E+01 -2.25116379955E+01
 -2.24620559591E+01 -2.24118282366E+01 -2.23609620324E+01 -2.23094563293E+01
 -2.22572986313E+01 -2.22044609065E+01 -2.21508945790E+01 -2.20965244217E+01
 -2.20412412338E+01 -2.19848932617E+01 -2.19272764455E+01 -2.18681237720E+01
 -2.18070942915E+01 -2.17437627026E+01 -2.16776108080E+01 -2.16080225232E+01
 -2.15342843815E+01 -2.14555934798E+01 -2.13710744058E+01 -2.12798057561E+01
 -2.11808554085E+01 -2.10733219082E+01 -2.09563775497E+01 -2.08293074993E+01
 -2.06915391127E+01 -2.05426567516E+01 -2.03823997833E+01 -2.02106445257E+01
 -2.00273738582E+01 -1.98326402750E+01 -1.96265288240E+01 -1.94091256377E+01
 -1.91804960305E+01 -1.89406739979E+01 -1.86896629936E+01 -1.84274464413E+01
 -1.81540056878E+01 -1.78693429387E+01 -1.75735069550E+01 -1.72666197246E+01
 -1.69489027906E+01 -1.66207023102E+01 -1.62825121845E+01 -1.59349947344E+01
 -1.55789984125E+01 -1.52155719555E+01 -1.48459742346E+01 -1.44716788574E+01
 -1.40943723473E+01 -1.37159444806E+01 -1.33384691186E+01 -1.29641736474E+01
 -1.25953949652E+01 -1.22345198811E+01 -1.18839078834E+01 -1.15457946199E+01
 -1.12221752819E+01 -1.09146686568E+01 -1.06243652798E+01 -1.03516673858E+01
 -1.00961349376E+01 -9.85636185155E+00 -9.62992099505E+00 -9.41343750428E+00
 -9.20288015287E+00 -8.99420358507E+00 -8.78453488202E+00 -8.57418169969E+00
 -8.36750827391E+00 -8.16581453017E+00 -7.96898197622E+00 -7.77689359526E+00
 -7.58943514874E+00 -7.40649511959E+00 -7.22796465467E+00 -7.05373750679E+00
 -6.88370997666E+00 -6.71778085512E+00 -6.55585136586E+00 -6.39782510877E+00
 -6.24360800412E+00 -6.09310823771E+00 -5.94623620702E+00 -5.80290446837E+00
 -5.66302768525E+00 -5.52652257779E+00 -5.39330787332E+00 -5.26330425807E+00
 -5.13643433003E+00 -5.01262255290E+00 -4.89179521113E+00 -4.77388036605E+00
 -4.65880781304E+00 -4.54650903975E+00 -4.43691718526E+00 -4.32996700035E+00
 -4.22559480857E+00 -4.12373846840E+00 -4.02433733620E+00 -3.92733223011E+00
 -3.83266539486E+00 -3.74028046732E+00 -3.65012244298E+00 -3.56213764319E+00
 -3.47627368321E+00 -3.39247944102E+00 -3.31070502686E+00 -3.23090175354E+00
 -3.15302210749E+00 -3.07701972040E+00 -3.00284934166E+00 -2.93046681142E+00
 -2.85982903427E+00 -2.79089395361E+00 -2.72362052661E+00 -2.65796869972E+00
 -2.59389938492E+00 -2.53137443634E+00 -2.47035662764E+00 -2.41080962978E+00
 -2.35269798944E+00 -2.29598710788E+00 -2.24064322033E+00 -2.18663337595E+00
 -2.13392541812E+00 -2.08248796538E+00 -2.03229039268E+00 -1.98330281319E+00
 -1.93549606050E+00 -1.88884167122E+00 -1.84331186808E+00 -1.79887954336E+00
 -1.75551824276E+00 -1.71320214966E+00 -1.67190606974E+00 -1.63160541597E+00
 -1.59227619397E+00 -1.55389498778E+00 -1.51643894582E+00 -1.47988576736E+00
 -1.44421368924E+00 -1.40940147286E+00 -1.37542839159E+00 -1.34227421839E+00
 -1.30991921381E+00 -1.27834411419E+00 -1.24753012022E+00 -1.21745888574E+00
 -1.18811250682E+00 -1.15947351110E+00 -1.13152484737E+00 -1.10424987545E+00
 -1.07763235625E+00 -1.05165644213E+00 -1.02630666744E+00 -1.00156793934E+00
 -9.77425528778E-01 -9.53865061753E-01 -9.30872510737E-01 -9.08434186335E-01
 -8.86536729126E-01 -8.65167101713E-01 -8.44312580963E-01 -8.23960750428E-01
 -8.04099492952E-01 -7.84716983461E-01 -7.65801681917E-01 -7.47342326454E-01
 -7.29327926665E-01 -7.11747757066E-01 -6.94591350703E-01 -6.77848492928E-01
 -6.61509215310E-01 -6.45563789704E-01 -6.30002722459E-01 -6.14816748765E-01
 -5.99996827135E-01 -5.85534134024E-01 -5.71420058577E-01 -5.57646197499E-01
 -5.44204350053E-01 -5.31086513177E-01 -5.18284876722E-01 -5.05791818798E-01
 -4.93599901237E-01 -4.81701865168E-01 -4.70090626689E-01 -4.58759272654E-01
 -4.47701056557E-01 -4.36909394513E-01 -4.26377861338E-01 -4.16100186725E-01
 -4.06070251513E-01 -3.96282084037E-01 -3.86729856580E-01 -3.77407881897E-01
 -3.68310609834E-01 -3.59432624021E-01 -3.50768638646E-01 -3.42313495312E-01
 -3.34062159961E-01 -3.26009719880E-01 -3.18151380775E-01 -3.10482463916E-01
 -3.02998403353E-01 -2.95694743196E-01 -2.88567134963E-01 -2.81611334988E-01
 -2.74823201902E-01 -2.68198694156E-01 -2.61733867626E-01 -2.55424873256E-01
 -2.49267954773E-01 -2.43259446446E-01 -2.37395770905E-01 -2.31673437010E-01
 -2.26089037777E-01 -2.20639248343E-01 -2.15320823991E-01 -2.10130598215E-01
 -2.05065480838E-01 -2.00122456171E-01 -1.95298581215E-01 -1.90590983912E-01
 -1.85996861435E-01 -1.81513478515E-01 -1.77138165820E-01 -1.72868318356E-01
 -1.68701393926E-01 -1.64634911609E-01 -1.60666450287E-01 -1.56793647201E-01
 -1.53014196547E-01
</PP_LOCAL>


<PP_NONLOCAL>
  <PP_BETA>
    1    0             Beta    L
   389
  9.27610706798E-03  9.50522691256E-03  9.74000601730E-03  9.98058416592E-03
  1.02271045937E-02  1.04797140655E-02  1.07385629815E-02  1.10038054551E-02
  1.12755994062E-02  1.15541066554E-02  1.18394930203E-02  1.21319284141E-02
  1.24315869466E-02  1.27386470281E-02  1.30532914758E-02  1.33757076220E-02
  1.37060874262E-02  1.40446275892E-02  1.43915296702E-02  1.47470002067E-02
  1.51112508375E-02  1.54844984290E-02  1.58669652037E-02  1.62588788730E-02
  1.66604727726E-02  1.70719860013E-02  1.74936635635E-02  1.79257565149E-02
  1.83685221122E-02  1.88222239657E-02  1.92871321971E-02  1.97635235993E-02
  2.02516818020E-02  2.07518974401E-02  2.12644683266E-02  2.17896996304E-02
  2.23279040573E-02  2.28794020367E-02  2.34445219119E-02  2.40236001358E-02
  2.46169814712E-02  2.52250191957E-02  2.58480753123E-02  2.64865207645E-02
  2.71407356577E-02  2.78111094846E-02  2.84980413576E-02  2.92019402464E-02
  2.99232252209E-02  3.06623257008E-02  3.14196817115E-02  3.21957441454E-02
  3.29909750308E-02  3.38058478062E-02  3.46408476026E-02  3.54964715317E-02